# Force coefficients
# dragDir       : (1.00000000e+00 0.00000000e+00 0.00000000e+00)
# sideDir       : (0.00000000e+00 0.00000000e+00 -1.00000000e+00)
# liftDir       : (0.00000000e+00 1.00000000e+00 0.00000000e+00)
# rollAxis      : (1.00000000e+00 0.00000000e+00 0.00000000e+00)
# pitchAxis     : (0.00000000e+00 0.00000000e+00 -1.00000000e+00)
# yawAxis       : (0.00000000e+00 1.00000000e+00 0.00000000e+00)
# magUInf       : 1.00000000e+00
# lRef          : 1.00000000e-01
# Aref          : 1.00000000e-03
# CofR          : (2.00000000e-01 2.00000000e-01 5.00000000e-03)
#
# Time          	Cd              	Cs              	Cl              	CmRoll          	CmPitch         	CmYaw           	Cd(f)           	Cd(r)           	Cs(f)           	Cs(r)           	Cl(f)           	Cl(r)           
0.00058823529   	5.87178505e+02	-1.43677337e-14	-9.22901167e-01	1.01519128e-01	-1.29313201e-01	6.45896356e+01	2.93690772e+02	2.93487733e+02	6.45896356e+01	-6.45896356e+01	-5.90763784e-01	-3.32137382e-01
0.0013122172    	9.28757832e+00	-6.69480661e-18	1.76397709e-02	-1.94037479e-03	-2.65763333e-01	1.02163361e+00	4.64184878e+00	4.64572953e+00	1.02163361e+00	-1.02163361e+00	-2.56943448e-01	2.74583218e-01
0.0021809955    	7.85661311e+00	-6.00979862e-18	2.43577515e-02	-2.67935267e-03	-4.03551603e-01	8.64227442e-01	3.92562720e+00	3.93098591e+00	8.64227442e-01	-8.64227442e-01	-3.91372728e-01	4.15730479e-01
0.003158371     	6.65013493e+00	-5.51269495e-18	6.15190047e-02	-6.76709051e-03	-5.34558671e-01	7.31514842e-01	3.31830037e+00	3.33183455e+00	7.31514842e-01	-7.31514842e-01	-5.03799169e-01	5.65318173e-01
0.0041357466    	5.79788401e+00	-5.11533117e-18	9.85456335e-02	-1.08400197e-02	-6.47498344e-01	6.37767241e-01	2.88810198e+00	2.90978202e+00	6.37767241e-01	-6.37767241e-01	-5.98225527e-01	6.96771161e-01
0.0051131222    	5.16063561e+00	-4.77976165e-18	1.32163964e-01	-1.45380361e-02	-7.46478506e-01	5.67669917e-01	2.56577977e+00	2.59485584e+00	5.67669917e-01	-5.67669917e-01	-6.80396523e-01	8.12560488e-01
0.0060904977    	4.67432720e+00	-4.49129712e-18	1.65910513e-01	-1.82501564e-02	-8.34348823e-01	5.14175992e-01	2.31891344e+00	2.35541375e+00	5.14175992e-01	-5.14175992e-01	-7.51393567e-01	9.17304080e-01
0.0070678733    	4.29617626e+00	-4.24262839e-18	2.02852163e-01	-2.23137379e-02	-9.13098552e-01	4.72579389e-01	2.12577439e+00	2.17040187e+00	4.72579389e-01	-4.72579389e-01	-8.11672471e-01	1.01452463e+00
0.0080452489    	3.99610456e+00	-4.02079427e-18	2.40256274e-01	-2.64281902e-02	-9.84137549e-01	4.39571501e-01	1.97162409e+00	2.02448047e+00	4.39571501e-01	-4.39571501e-01	-8.64009412e-01	1.10426569e+00
0.0090226244    	3.75498764e+00	-3.82300153e-18	2.80041098e-01	-3.08045208e-02	-1.04847314e+00	4.13048640e-01	1.84668930e+00	1.90829834e+00	4.13048640e-01	-4.13048640e-01	-9.08452596e-01	1.18849369e+00
0.01            	3.55787156e+00	-3.64641965e-18	3.21375549e-01	-3.53513103e-02	-1.10683303e+00	3.91365872e-01	1.74358447e+00	1.81428709e+00	3.91365872e-01	-3.91365872e-01	-9.46145255e-01	1.26752080e+00
0.011           	3.39247238e+00	-3.47332204e-18	3.64237707e-01	-4.00661478e-02	-1.16090792e+00	3.73171961e-01	1.65617004e+00	1.73630234e+00	3.73171961e-01	-3.73171961e-01	-9.78789068e-01	1.34302677e+00
0.012           	3.25209002e+00	-3.32676291e-18	4.10838426e-01	-4.51922269e-02	-1.20971088e+00	3.57729902e-01	1.58085278e+00	1.67123724e+00	3.57729902e-01	-3.57729902e-01	-1.00429167e+00	1.41513009e+00
0.013           	3.13439482e+00	-3.18770622e-18	4.56254688e-01	-5.01880157e-02	-1.25355691e+00	3.44783430e-01	1.51700939e+00	1.61738543e+00	3.44783430e-01	-3.44783430e-01	-1.02542957e+00	1.48168426e+00
0.014           	3.03501521e+00	-3.05716250e-18	5.02805166e-01	-5.53085682e-02	-1.29268478e+00	3.33851673e-01	1.46219904e+00	1.57281617e+00	3.33851673e-01	-3.33851673e-01	-1.04128220e+00	1.54408736e+00
0.015           	2.95015896e+00	-2.93443348e-18	5.49866865e-01	-6.04853551e-02	-1.32727908e+00	3.24517485e-01	1.41459412e+00	1.53556483e+00	3.24517485e-01	-3.24517485e-01	-1.05234565e+00	1.60221251e+00
0.016           	2.87678658e+00	-2.81926899e-18	5.97390540e-01	-6.57129594e-02	-1.35748523e+00	3.16446524e-01	1.37268033e+00	1.50410625e+00	3.16446524e-01	-3.16446524e-01	-1.05878996e+00	1.65618050e+00
0.017           	2.81368674e+00	-2.70959123e-18	6.44962186e-01	-7.09458405e-02	-1.38342058e+00	3.09505541e-01	1.33589753e+00	1.47778921e+00	3.09505541e-01	-3.09505541e-01	-1.06093949e+00	1.70590167e+00
0.018           	2.75851958e+00	-2.60808116e-18	6.94640049e-01	-7.64104054e-02	-1.40518097e+00	3.03437153e-01	1.30284938e+00	1.45567019e+00	3.03437153e-01	-3.03437153e-01	-1.05786094e+00	1.75250099e+00
0.019           	2.71006824e+00	-2.50842297e-18	7.41844779e-01	-8.16029257e-02	-1.42284916e+00	2.98107506e-01	1.27343119e+00	1.43663704e+00	2.98107506e-01	-2.98107506e-01	-1.05192677e+00	1.79377155e+00
0.02            	2.66789794e+00	-2.41320909e-18	7.88816031e-01	-8.67697634e-02	-1.43649770e+00	2.93468774e-01	1.24717921e+00	1.42071873e+00	2.93468774e-01	-2.93468774e-01	-1.04208969e+00	1.83090572e+00
0.021           	2.63186646e+00	-2.32216135e-18	8.36445776e-01	-9.20090354e-02	-1.44619165e+00	2.89505310e-01	1.22392419e+00	1.40794226e+00	2.89505310e-01	-2.89505310e-01	-1.02796877e+00	1.86441454e+00
0.022           	2.60141588e+00	-2.23524465e-18	8.83688703e-01	-9.72057573e-02	-1.45199178e+00	2.86155747e-01	1.20350218e+00	1.39791370e+00	2.86155747e-01	-2.86155747e-01	-1.01014743e+00	1.89383614e+00
0.023           	2.57551462e+00	-2.15077320e-18	9.30466562e-01	-1.02351322e-01	-1.45395584e+00	2.83306608e-01	1.18540599e+00	1.39010863e+00	2.83306608e-01	-2.83306608e-01	-9.88722563e-01	1.91918912e+00
0.024           	2.55348997e+00	-2.06639389e-18	9.75425421e-01	-1.07296796e-01	-1.45214091e+00	2.80883897e-01	1.16944819e+00	1.38404178e+00	2.80883897e-01	-2.80883897e-01	-9.64428197e-01	1.93985362e+00
0.025           	2.53538936e+00	-1.98161923e-18	1.01995929e+00	-1.12195522e-01	-1.44660232e+00	2.78892829e-01	1.15549916e+00	1.37989020e+00	2.78892829e-01	-2.78892829e-01	-9.36622677e-01	1.95658197e+00
0.026           	2.52006341e+00	-1.89962196e-18	1.06329874e+00	-1.16962861e-01	-1.43739639e+00	2.77206975e-01	1.14306884e+00	1.37699457e+00	2.77206975e-01	-2.77206975e-01	-9.05747021e-01	1.96904576e+00
0.027           	2.50816602e+00	-1.82061994e-18	1.10629179e+00	-1.21692097e-01	-1.42458217e+00	2.75898263e-01	1.13239091e+00	1.37577511e+00	2.75898263e-01	-2.75898263e-01	-8.71436281e-01	1.97772807e+00
0.028           	2.49947668e+00	-1.74553226e-18	1.14940928e+00	-1.26435021e-01	-1.40822129e+00	2.74942435e-01	1.12330332e+00	1.37617336e+00	2.74942435e-01	-2.74942435e-01	-8.33516651e-01	1.98292593e+00
0.029           	2.49346146e+00	-1.67039108e-18	1.19003617e+00	-1.30903979e-01	-1.38837834e+00	2.74280760e-01	1.11582675e+00	1.37763471e+00	2.74280760e-01	-2.74280760e-01	-7.93360259e-01	1.98339643e+00
0.03            	2.48919858e+00	-1.59587881e-18	1.23000805e+00	-1.35300886e-01	-1.36512163e+00	2.73811844e-01	1.10929840e+00	1.37990018e+00	2.73811844e-01	-2.73811844e-01	-7.50117606e-01	1.98012566e+00
0.031           	2.48834440e+00	-1.52535435e-18	1.26971773e+00	-1.39668950e-01	-1.33852374e+00	2.73717884e-01	1.10450325e+00	1.38384115e+00	2.73717884e-01	-2.73717884e-01	-7.03664870e-01	1.97338260e+00
0.032           	2.48924193e+00	-1.45156199e-18	1.30771193e+00	-1.43848312e-01	-1.30866076e+00	2.73816612e-01	1.10077265e+00	1.38846928e+00	2.73816612e-01	-2.73816612e-01	-6.54804801e-01	1.96251673e+00
0.033           	2.49239288e+00	-1.38166443e-18	1.34451233e+00	-1.47896356e-01	-1.27561336e+00	2.74163217e-01	1.09830008e+00	1.39409280e+00	2.74163217e-01	-2.74163217e-01	-6.03357199e-01	1.94786953e+00
0.034           	2.49642301e+00	-1.30725116e-18	1.37886535e+00	-1.51675189e-01	-1.23946668e+00	2.74606531e-01	1.09653632e+00	1.39988669e+00	2.74606531e-01	-2.74606531e-01	-5.50034002e-01	1.92889936e+00
0.035           	2.49925054e+00	-1.24548691e-18	1.41551202e+00	-1.55706322e-01	-1.20031008e+00	2.74917559e-01	1.09391895e+00	1.40533159e+00	2.74917559e-01	-2.74917559e-01	-4.92554072e-01	1.90806609e+00
0.036           	2.50572622e+00	-1.18196133e-18	1.44900485e+00	-1.59390534e-01	-1.15823902e+00	2.75629884e-01	1.09347258e+00	1.41225364e+00	2.75629884e-01	-2.75629884e-01	-4.33736589e-01	1.88274144e+00
0.037           	2.51294188e+00	-1.11887994e-18	1.48041296e+00	-1.62845425e-01	-1.11335273e+00	2.76423607e-01	1.09362551e+00	1.41931637e+00	2.76423607e-01	-2.76423607e-01	-3.73146251e-01	1.85355921e+00
0.038           	2.52120632e+00	-1.05825411e-18	1.51115451e+00	-1.66226996e-01	-1.06575518e+00	2.77332695e-01	1.09437616e+00	1.42683016e+00	2.77332695e-01	-2.77332695e-01	-3.10177919e-01	1.82133243e+00
0.039           	2.53015771e+00	-9.99015573e-19	1.53970798e+00	-1.69367878e-01	-1.01555506e+00	2.78317348e-01	1.09571098e+00	1.43444673e+00	2.78317348e-01	-2.78317348e-01	-2.45701065e-01	1.78540905e+00
0.04            	2.53963768e+00	-9.41424905e-19	1.56746692e+00	-1.72421361e-01	-9.62865881e-01	2.79360145e-01	1.09739748e+00	1.44224020e+00	2.79360145e-01	-2.79360145e-01	-1.79132420e-01	1.74659934e+00
0.041           	2.54958055e+00	-8.86296275e-19	1.59331002e+00	-1.75264102e-01	-9.07805906e-01	2.80453860e-01	1.09952617e+00	1.45005438e+00	2.80453860e-01	-2.80453860e-01	-1.11150897e-01	1.70446092e+00
0.042           	2.55989181e+00	-8.36328172e-19	1.61914393e+00	-1.78105832e-01	-8.50497933e-01	2.81588099e-01	1.10184007e+00	1.45805174e+00	2.81588099e-01	-2.81588099e-01	-4.09259695e-02	1.66006990e+00
0.043           	2.57117301e+00	-7.84718499e-19	1.64251289e+00	-1.80676418e-01	-7.91068974e-01	2.82829031e-01	1.10491009e+00	1.46626292e+00	2.82829031e-01	-2.82829031e-01	3.01874733e-02	1.61232542e+00
0.044           	2.58232783e+00	-7.36950944e-19	1.66434569e+00	-1.83078026e-01	-7.29650510e-01	2.84056061e-01	1.10808589e+00	1.47424194e+00	2.84056061e-01	-2.84056061e-01	1.02522335e-01	1.56182336e+00
0.045           	2.59331557e+00	-6.90069857e-19	1.68406688e+00	-1.85247357e-01	-6.66377939e-01	2.85264712e-01	1.11141043e+00	1.48190514e+00	2.85264712e-01	-2.85264712e-01	1.75655501e-01	1.50841138e+00
0.046           	2.60392309e+00	-6.46462013e-19	1.70301060e+00	-1.87331166e-01	-6.01390394e-01	2.86431540e-01	1.11463038e+00	1.48929271e+00	2.86431540e-01	-2.86431540e-01	2.50114905e-01	1.45289569e+00
0.047           	2.61529649e+00	-6.04612684e-19	1.71996787e+00	-1.89196466e-01	-5.34830424e-01	2.87682614e-01	1.11845178e+00	1.49684471e+00	2.87682614e-01	-2.87682614e-01	3.25153513e-01	1.39481436e+00
0.048           	2.62533459e+00	-5.64236760e-19	1.73502957e+00	-1.90853253e-01	-4.66843972e-01	2.88786805e-01	1.12181404e+00	1.50352055e+00	2.88786805e-01	-2.88786805e-01	4.00670814e-01	1.33435876e+00
0.049           	2.63541944e+00	-5.25745341e-19	1.74874450e+00	-1.92361895e-01	-3.97580217e-01	2.89896138e-01	1.12534782e+00	1.51007161e+00	2.89896138e-01	-2.89896138e-01	4.76792034e-01	1.27195247e+00
0.05            	2.64622058e+00	-4.92015938e-19	1.76187668e+00	-1.93806435e-01	-3.27190704e-01	2.91084264e-01	1.12930385e+00	1.51691672e+00	2.91084264e-01	-2.91084264e-01	5.53747638e-01	1.20812905e+00
0.051           	2.65667967e+00	-4.61098631e-19	1.77410799e+00	-1.95151879e-01	-2.55829285e-01	2.92234763e-01	1.13318795e+00	1.52349171e+00	2.92234763e-01	-2.92234763e-01	6.31224709e-01	1.14288328e+00
0.052           	2.66688507e+00	-4.32514350e-19	1.78368935e+00	-1.96205829e-01	-1.83652103e-01	2.93357357e-01	1.13723670e+00	1.52964836e+00	2.93357357e-01	-2.93357357e-01	7.08192573e-01	1.07549678e+00
0.053           	2.67586541e+00	-4.03736753e-19	1.79253561e+00	-1.97178917e-01	-1.10816745e-01	2.94345195e-01	1.14075379e+00	1.53511162e+00	2.94345195e-01	-2.94345195e-01	7.85451059e-01	1.00708455e+00
0.054           	2.68438690e+00	-3.77074234e-19	1.79999535e+00	-1.97999488e-01	-3.74820564e-02	2.95282559e-01	1.14419396e+00	1.54019294e+00	2.95282559e-01	-2.95282559e-01	8.62515617e-01	9.37479729e-01
0.055           	2.69261890e+00	-3.51400553e-19	1.80623876e+00	-1.98686264e-01	3.61929807e-02	2.96188079e-01	1.14762319e+00	1.54499572e+00	2.96188079e-01	-2.96188079e-01	9.39312362e-01	8.66926401e-01
0.056           	2.70059309e+00	-3.26384844e-19	1.81030209e+00	-1.99133230e-01	1.10048932e-01	2.97065240e-01	1.15116332e+00	1.54942978e+00	2.97065240e-01	-2.97065240e-01	1.01519998e+00	7.95102115e-01
0.057           	2.70731231e+00	-3.02220871e-19	1.81339157e+00	-1.99473073e-01	1.83926469e-01	2.97804354e-01	1.15418308e+00	1.55312923e+00	2.97804354e-01	-2.97804354e-01	1.09062225e+00	7.22769317e-01
0.058           	2.71452232e+00	-2.79302054e-19	1.81607299e+00	-1.99768028e-01	2.57666665e-01	2.98597455e-01	1.15749313e+00	1.55702919e+00	2.98597455e-01	-2.98597455e-01	1.16570316e+00	6.50369828e-01
0.059           	2.72018417e+00	-2.56890910e-19	1.81701091e+00	-1.99871200e-01	3.31110854e-01	2.99220259e-01	1.16022089e+00	1.55996329e+00	2.99220259e-01	-2.99220259e-01	1.23961631e+00	5.77394600e-01
0.06            	2.72522832e+00	-2.34001971e-19	1.81738033e+00	-1.99911836e-01	4.04101723e-01	2.99775115e-01	1.16270232e+00	1.56252600e+00	2.99775115e-01	-2.99775115e-01	1.31279189e+00	5.04588442e-01
0.061           	2.72971271e+00	-2.10519618e-19	1.81684016e+00	-1.99852418e-01	4.76483721e-01	3.00268398e-01	1.16500394e+00	1.56470877e+00	3.00268398e-01	-3.00268398e-01	1.38490380e+00	4.31936362e-01
0.062           	2.73436578e+00	-1.86130860e-19	1.81398978e+00	-1.99538876e-01	5.48103350e-01	3.00780236e-01	1.16764402e+00	1.56672177e+00	3.00780236e-01	-3.00780236e-01	1.45509824e+00	3.58891542e-01
0.063           	2.73911205e+00	-1.60252442e-19	1.81014632e+00	-1.99116095e-01	6.18809996e-01	3.01302325e-01	1.17043993e+00	1.56867212e+00	3.01302325e-01	-3.01302325e-01	1.52388316e+00	2.86263164e-01
0.064           	2.74302687e+00	-1.32618350e-19	1.80534711e+00	-1.98588182e-01	6.88455534e-01	3.01732956e-01	1.17292525e+00	1.57010162e+00	3.01732956e-01	-3.01732956e-01	1.59112909e+00	2.14218019e-01
0.065           	2.74537723e+00	-1.07796070e-19	1.80175245e+00	-1.98192770e-01	7.56894691e-01	3.01991495e-01	1.17449584e+00	1.57088138e+00	3.01991495e-01	-3.01991495e-01	1.65777092e+00	1.43981535e-01
0.066           	2.74775830e+00	-7.35482098e-20	1.79384328e+00	-1.97322760e-01	8.23984393e-01	3.02253413e-01	1.17655639e+00	1.57120191e+00	3.02253413e-01	-3.02253413e-01	1.72090603e+00	7.29372445e-02
0.067           	2.75092435e+00	-4.75080492e-20	1.78988744e+00	-1.96887619e-01	8.89586339e-01	3.02601678e-01	1.17857455e+00	1.57234979e+00	3.02601678e-01	-3.02601678e-01	1.78453006e+00	5.35738269e-03
0.068           	2.75254793e+00	-1.50752040e-20	1.78175372e+00	-1.95992909e-01	9.53566328e-01	3.02780272e-01	1.18028106e+00	1.57226687e+00	3.02780272e-01	-3.02780272e-01	1.84444319e+00	-6.26894699e-02
0.069           	2.75562684e+00	2.12366313e-20	1.77219451e+00	-1.94941396e-01	1.01579374e+00	3.03118953e-01	1.18287202e+00	1.57275482e+00	3.03118953e-01	-3.03118953e-01	1.90189100e+00	-1.29696483e-01
0.07            	2.75761686e+00	5.96597599e-20	1.76352857e+00	-1.93988143e-01	1.07614224e+00	3.03337855e-01	1.18482029e+00	1.57279657e+00	3.03337855e-01	-3.03337855e-01	1.95790652e+00	-1.94377951e-01
0.071           	2.75908252e+00	1.03124010e-19	1.75300166e+00	-1.92830182e-01	1.13448959e+00	3.03499077e-01	1.18671108e+00	1.57237144e+00	3.03499077e-01	-3.03499077e-01	2.01099042e+00	-2.57988766e-01
0.072           	2.76027676e+00	1.44673878e-19	1.74297959e+00	-1.91727755e-01	1.19071854e+00	3.03630443e-01	1.18841062e+00	1.57186613e+00	3.03630443e-01	-3.03630443e-01	2.06220833e+00	-3.19228738e-01
0.073           	2.76178851e+00	1.91359843e-19	1.72949158e+00	-1.90244074e-01	1.24471559e+00	3.03796736e-01	1.19065018e+00	1.57113833e+00	3.03796736e-01	-3.03796736e-01	2.10946138e+00	-3.79969801e-01
0.074           	2.76343619e+00	2.40114974e-19	1.71589000e+00	-1.88747900e-01	1.29637327e+00	3.03977981e-01	1.19297019e+00	1.57046599e+00	3.03977981e-01	-3.03977981e-01	2.15431826e+00	-4.38428266e-01
0.075           	2.76469032e+00	2.90582986e-19	1.70381540e+00	-1.87419694e-01	1.34558923e+00	3.04115935e-01	1.19492546e+00	1.56976485e+00	3.04115935e-01	-3.04115935e-01	2.19749693e+00	-4.93681530e-01
0.076           	2.76547051e+00	3.46508918e-19	1.68877314e+00	-1.85765045e-01	1.39226631e+00	3.04201756e-01	1.19697021e+00	1.56850030e+00	3.04201756e-01	-3.04201756e-01	2.23665288e+00	-5.47879739e-01
0.077           	2.76537631e+00	4.06808937e-19	1.67360082e+00	-1.84096090e-01	1.43631283e+00	3.04191394e-01	1.19859206e+00	1.56678424e+00	3.04191394e-01	-3.04191394e-01	2.27311324e+00	-5.99512418e-01
0.078           	2.76564508e+00	4.69009253e-19	1.65740758e+00	-1.82314833e-01	1.47764275e+00	3.04220959e-01	1.20050771e+00	1.56513737e+00	3.04220959e-01	-3.04220959e-01	2.30634654e+00	-6.48938966e-01
0.079           	2.76743267e+00	5.40076041e-19	1.64116355e+00	-1.80527991e-01	1.51617505e+00	3.04417593e-01	1.20318834e+00	1.56424432e+00	3.04417593e-01	-3.04417593e-01	2.33675682e+00	-6.95593273e-01
0.08            	2.76899560e+00	6.15596199e-19	1.62428597e+00	-1.78671456e-01	1.55183576e+00	3.04589516e-01	1.20582635e+00	1.56316926e+00	3.04589516e-01	-3.04589516e-01	2.36397875e+00	-7.39692779e-01
0.081           	2.76952585e+00	6.94531759e-19	1.60680923e+00	-1.76749015e-01	1.58455696e+00	3.04647844e-01	1.20801391e+00	1.56151194e+00	3.04647844e-01	-3.04647844e-01	2.38796157e+00	-7.81152342e-01
0.082           	2.77137500e+00	7.83512584e-19	1.58931021e+00	-1.74824123e-01	1.61427481e+00	3.04851250e-01	1.21086338e+00	1.56051162e+00	3.04851250e-01	-3.04851250e-01	2.40892992e+00	-8.19619709e-01
0.083           	2.77239932e+00	8.67241058e-19	1.56894714e+00	-1.72584185e-01	1.64093183e+00	3.04963925e-01	1.21361547e+00	1.55878384e+00	3.04963925e-01	-3.04963925e-01	2.42540540e+00	-8.56458260e-01
0.084           	2.77463858e+00	9.61671510e-19	1.54997526e+00	-1.70497278e-01	1.66447715e+00	3.05210244e-01	1.21682201e+00	1.55781657e+00	3.05210244e-01	-3.05210244e-01	2.43946477e+00	-8.89489519e-01
0.085           	2.77468124e+00	1.05651466e-18	1.53141981e+00	-1.68456180e-01	1.68486477e+00	3.05214936e-01	1.21888444e+00	1.55579680e+00	3.05214936e-01	-3.05214936e-01	2.45057468e+00	-9.19154867e-01
0.086           	2.77624460e+00	1.15748092e-18	1.51135776e+00	-1.66249353e-01	1.70205424e+00	3.05386906e-01	1.22187295e+00	1.55437165e+00	3.05386906e-01	-3.05386906e-01	2.45773312e+00	-9.46375361e-01
0.087           	2.77956378e+00	1.26050612e-18	1.49190121e+00	-1.64109133e-01	1.71601089e+00	3.05752016e-01	1.22567276e+00	1.55389102e+00	3.05752016e-01	-3.05752016e-01	2.46196150e+00	-9.70060286e-01
0.088           	2.78277897e+00	1.36888346e-18	1.47167275e+00	-1.61884002e-01	1.72670567e+00	3.06105687e-01	1.22950548e+00	1.55327349e+00	3.06105687e-01	-3.06105687e-01	2.46254205e+00	-9.90869300e-01
0.089           	2.78708611e+00	1.47757432e-18	1.44969082e+00	-1.59465990e-01	1.73411471e+00	3.06579472e-01	1.23407706e+00	1.55300904e+00	3.06579472e-01	-3.06579472e-01	2.45896012e+00	-1.00926930e+00
0.09            	2.79273454e+00	1.58926620e-18	1.43133326e+00	-1.57446659e-01	1.73822020e+00	3.07200800e-01	1.23892061e+00	1.55381393e+00	3.07200800e-01	-3.07200800e-01	2.45388683e+00	-1.02255357e+00
0.091           	2.79588847e+00	1.70474696e-18	1.41040707e+00	-1.55144778e-01	1.73901028e+00	3.07547732e-01	1.24279946e+00	1.55308902e+00	3.07547732e-01	-3.07547732e-01	2.44421382e+00	-1.03380675e+00
0.092           	2.80204669e+00	1.82129506e-18	1.39240259e+00	-1.53164285e-01	1.73647900e+00	3.08225136e-01	1.24785906e+00	1.55418763e+00	3.08225136e-01	-3.08225136e-01	2.43268029e+00	-1.04027771e+00
0.093           	2.80829280e+00	1.94055592e-18	1.37295289e+00	-1.51024818e-01	1.73062776e+00	3.08912208e-01	1.25312158e+00	1.55517122e+00	3.08912208e-01	-3.08912208e-01	2.41710420e+00	-1.04415131e+00
0.094           	2.81450417e+00	2.06111400e-18	1.35241472e+00	-1.48765620e-01	1.72146226e+00	3.09595458e-01	1.25848646e+00	1.55601770e+00	3.09595458e-01	-3.09595458e-01	2.39766962e+00	-1.04525490e+00
0.095           	2.81994121e+00	2.18261107e-18	1.33256280e+00	-1.46581908e-01	1.70899553e+00	3.10193533e-01	1.26338870e+00	1.55655251e+00	3.10193533e-01	-3.10193533e-01	2.37527693e+00	-1.04271413e+00
0.096           	2.82708337e+00	2.30575589e-18	1.31226265e+00	-1.44348891e-01	1.69324625e+00	3.10979171e-01	1.26919280e+00	1.55789058e+00	3.10979171e-01	-3.10979171e-01	2.34937757e+00	-1.03711493e+00
0.097           	2.83332108e+00	2.43181139e-18	1.29230879e+00	-1.42153967e-01	1.67423938e+00	3.11665319e-01	1.27450657e+00	1.55881451e+00	3.11665319e-01	-3.11665319e-01	2.32039378e+00	-1.02808498e+00
0.098           	2.84182747e+00	2.55129885e-18	1.27539727e+00	-1.40293699e-01	1.65200618e+00	3.12601022e-01	1.28062004e+00	1.56120743e+00	3.12601022e-01	-3.12601022e-01	2.28970481e+00	-1.01430755e+00
0.099           	2.84984641e+00	2.66951953e-18	1.25721194e+00	-1.38293313e-01	1.62658419e+00	3.13483105e-01	1.28662989e+00	1.56321652e+00	3.13483105e-01	-3.13483105e-01	2.25519016e+00	-9.97978220e-01
0.1             	2.85877852e+00	2.78567978e-18	1.23938617e+00	-1.36332479e-01	1.59801715e+00	3.14465637e-01	1.29305678e+00	1.56572174e+00	3.14465637e-01	-3.14465637e-01	2.21771023e+00	-9.78324060e-01
0.101           	2.86556598e+00	2.89838139e-18	1.22184178e+00	-1.34402596e-01	1.56635530e+00	3.15212258e-01	1.29838039e+00	1.56718559e+00	3.15212258e-01	-3.15212258e-01	2.17727619e+00	-9.55434405e-01
0.102           	2.87451240e+00	3.01089095e-18	1.20426698e+00	-1.32469368e-01	1.53165488e+00	3.16196364e-01	1.30478683e+00	1.56972557e+00	3.16196364e-01	-3.16196364e-01	2.13378837e+00	-9.29521393e-01
0.103           	2.88171775e+00	3.12096355e-18	1.18708380e+00	-1.30579218e-01	1.49397871e+00	3.16988952e-01	1.31027965e+00	1.57143809e+00	3.16988952e-01	-3.16988952e-01	2.08752062e+00	-9.00436812e-01
0.104           	2.89124113e+00	3.22700198e-18	1.17049942e+00	-1.28754937e-01	1.45339526e+00	3.18036524e-01	1.31686563e+00	1.57437550e+00	3.18036524e-01	-3.18036524e-01	2.03864497e+00	-8.68145544e-01
0.105           	2.90004012e+00	3.32728593e-18	1.15380556e+00	-1.26918612e-01	1.40997936e+00	3.19004413e-01	1.32310145e+00	1.57693867e+00	3.19004413e-01	-3.19004413e-01	1.98688214e+00	-8.33076574e-01
0.106           	2.90808583e+00	3.42584943e-18	1.13716889e+00	-1.25088578e-01	1.36381161e+00	3.19889441e-01	1.32895434e+00	1.57913149e+00	3.19889441e-01	-3.19889441e-01	1.93239606e+00	-7.95227170e-01
0.107           	2.91867506e+00	3.52019459e-18	1.12396753e+00	-1.23636428e-01	1.31497905e+00	3.21054257e-01	1.33570110e+00	1.58297396e+00	3.21054257e-01	-3.21054257e-01	1.87696282e+00	-7.52995286e-01
0.108           	2.93004628e+00	3.60945972e-18	1.10788835e+00	-1.21867719e-01	1.26357435e+00	3.22305091e-01	1.34315542e+00	1.58689086e+00	3.22305091e-01	-3.22305091e-01	1.81751852e+00	-7.09630168e-01
0.109           	2.94268014e+00	3.69093122e-18	1.09714929e+00	-1.20686422e-01	1.20969598e+00	3.23694816e-01	1.35065365e+00	1.59202649e+00	3.23694816e-01	-3.23694816e-01	1.75827062e+00	-6.61121332e-01
0.11            	2.95438787e+00	3.76467026e-18	1.08553136e+00	-1.19408450e-01	1.15344796e+00	3.24982665e-01	1.35778548e+00	1.59660238e+00	3.24982665e-01	-3.24982665e-01	1.69621364e+00	-6.10682281e-01
0.111           	2.96455596e+00	3.83751508e-18	1.07198581e+00	-1.17918439e-01	1.09494011e+00	3.26101155e-01	1.36435954e+00	1.60019642e+00	3.26101155e-01	-3.26101155e-01	1.63093302e+00	-5.58947204e-01
0.112           	2.97599782e+00	3.90482297e-18	1.06002300e+00	-1.16602530e-01	1.03428721e+00	3.27359760e-01	1.37139638e+00	1.60460144e+00	3.27359760e-01	-3.27359760e-01	1.56429871e+00	-5.04275710e-01
0.113           	2.98948336e+00	3.96331332e-18	1.05039808e+00	-1.15543789e-01	9.71608953e-01	3.28843170e-01	1.37919789e+00	1.61028547e+00	3.28843170e-01	-3.28843170e-01	1.49680799e+00	-4.46409912e-01
0.114           	2.99875321e+00	4.01691476e-18	1.03958943e+00	-1.14354837e-01	9.07030272e-01	3.29862853e-01	1.38502177e+00	1.61373144e+00	3.29862853e-01	-3.29862853e-01	1.42682499e+00	-3.87235559e-01
0.115           	3.00878102e+00	4.06494504e-18	1.02996953e+00	-1.13296648e-01	8.40680610e-01	3.30965913e-01	1.39109386e+00	1.61768716e+00	3.30965913e-01	-3.30965913e-01	1.35566538e+00	-3.25695845e-01
0.116           	3.01833211e+00	4.10464693e-18	1.02074703e+00	-1.12282173e-01	7.72693363e-01	3.32016532e-01	1.39688388e+00	1.62144823e+00	3.32016532e-01	-3.32016532e-01	1.28306688e+00	-2.62319850e-01
0.117           	3.02852948e+00	4.13806811e-18	1.01226186e+00	-1.11348804e-01	7.03206455e-01	3.33138243e-01	1.40291594e+00	1.62561354e+00	3.33138243e-01	-3.33138243e-01	1.20933738e+00	-1.97075527e-01
0.118           	3.03841050e+00	4.16614488e-18	1.00453587e+00	-1.10498946e-01	6.32361408e-01	3.34225155e-01	1.40870630e+00	1.62970419e+00	3.34225155e-01	-3.34225155e-01	1.13462934e+00	-1.30093471e-01
0.119           	3.04804434e+00	4.18667721e-18	9.99283531e-01	-1.09921188e-01	5.60302601e-01	3.35284877e-01	1.41410098e+00	1.63394336e+00	3.35284877e-01	-3.35284877e-01	1.05994437e+00	-6.06608355e-02
0.12            	3.05884013e+00	4.20273920e-18	9.93577759e-01	-1.09293553e-01	4.87177378e-01	3.36472415e-01	1.42012651e+00	1.63871362e+00	3.36472415e-01	-3.36472415e-01	9.83966258e-01	9.61150128e-03
0.121           	3.06804451e+00	4.21067879e-18	9.89737011e-01	-1.08871071e-01	4.13136173e-01	3.37484896e-01	1.42515118e+00	1.64289333e+00	3.37484896e-01	-3.37484896e-01	9.08004679e-01	8.17323325e-02
0.122           	3.07667930e+00	4.21337641e-18	9.84724138e-01	-1.08319655e-01	3.38331419e-01	3.38434723e-01	1.43002000e+00	1.64665931e+00	3.38434723e-01	-3.38434723e-01	8.30693488e-01	1.54030650e-01
0.123           	3.08472339e+00	4.20951744e-18	9.82599543e-01	-1.08085950e-01	2.62917222e-01	3.39319573e-01	1.43427574e+00	1.65044764e+00	3.39319573e-01	-3.39319573e-01	7.54216994e-01	2.28382549e-01
0.124           	3.09444762e+00	4.19962177e-18	9.79951605e-01	-1.07794677e-01	1.87049560e-01	3.40389238e-01	1.43942913e+00	1.65501849e+00	3.40389238e-01	-3.40389238e-01	6.77025362e-01	3.02926242e-01
0.125           	3.10053188e+00	4.18381669e-18	9.76168789e-01	-1.07378567e-01	1.10885131e-01	3.41058507e-01	1.44288738e+00	1.65764451e+00	3.41058507e-01	-3.41058507e-01	5.98969525e-01	3.77199264e-01
0.126           	3.10855339e+00	4.16188195e-18	9.76488557e-01	-1.07413741e-01	3.45809064e-02	3.41940873e-01	1.44686296e+00	1.66169044e+00	3.41940873e-01	-3.41940873e-01	5.22825185e-01	4.53663372e-01
0.127           	3.11590709e+00	4.13464893e-18	9.75214083e-01	-1.07273549e-01	-4.17057885e-02	3.42749780e-01	1.45068000e+00	1.66522710e+00	3.42749780e-01	-3.42749780e-01	4.45901253e-01	5.29312830e-01
0.128           	3.12208909e+00	4.09840261e-18	9.75579409e-01	-1.07313735e-01	-1.17817449e-01	3.43429800e-01	1.45373081e+00	1.66835828e+00	3.43429800e-01	-3.43429800e-01	3.69972256e-01	6.05607153e-01
0.129           	3.12725081e+00	4.05775221e-18	9.76494006e-01	-1.07414341e-01	-1.93596911e-01	3.43997589e-01	1.45621106e+00	1.67103974e+00	3.43997589e-01	-3.43997589e-01	2.94650092e-01	6.81843913e-01
0.13            	3.13217169e+00	4.01225256e-18	9.75976804e-01	-1.07357448e-01	-2.68888819e-01	3.44538886e-01	1.45872840e+00	1.67344329e+00	3.44538886e-01	-3.44538886e-01	2.19099583e-01	7.56877221e-01
0.131           	3.13552022e+00	3.96412207e-18	9.78649571e-01	-1.07651453e-01	-3.43539215e-01	3.44907224e-01	1.46010866e+00	1.67541156e+00	3.44907224e-01	-3.44907224e-01	1.45785571e-01	8.32864000e-01
0.132           	3.13989365e+00	3.91099095e-18	9.81088733e-01	-1.07919761e-01	-4.17395380e-01	3.45388302e-01	1.46202707e+00	1.67786659e+00	3.45388302e-01	-3.45388302e-01	7.31489867e-02	9.07939746e-01
0.133           	3.14435284e+00	3.85428329e-18	9.85519688e-01	-1.08407166e-01	-4.90307455e-01	3.45878812e-01	1.46376925e+00	1.68058358e+00	3.45878812e-01	-3.45878812e-01	2.45238842e-03	9.83067299e-01
0.134           	3.14723706e+00	3.79314506e-18	9.89232449e-01	-1.08815569e-01	-5.62127178e-01	3.46196076e-01	1.46480296e+00	1.68243410e+00	3.46196076e-01	-3.46196076e-01	-6.75109535e-02	1.05674340e+00
0.135           	3.14979029e+00	3.72758532e-18	9.93561975e-01	-1.09291817e-01	-6.32708817e-01	3.46476932e-01	1.46560333e+00	1.68418696e+00	3.46476932e-01	-3.46476932e-01	-1.35927829e-01	1.12948980e+00
0.136           	3.15171844e+00	3.66033916e-18	9.97662296e-01	-1.09742853e-01	-7.01910754e-01	3.46689028e-01	1.46611637e+00	1.68560207e+00	3.46689028e-01	-3.46689028e-01	-2.03079605e-01	1.20074190e+00
0.137           	3.15240475e+00	3.59009696e-18	1.00234102e+00	-1.10257512e-01	-7.69594839e-01	3.46764522e-01	1.46594486e+00	1.68645989e+00	3.46764522e-01	-3.46764522e-01	-2.68424332e-01	1.27076535e+00
0.138           	3.15364041e+00	3.51610723e-18	1.00867747e+00	-1.10954521e-01	-8.35626117e-01	3.46900445e-01	1.46586568e+00	1.68777473e+00	3.46900445e-01	-3.46900445e-01	-3.31287385e-01	1.33996485e+00
0.139           	3.15449159e+00	3.44841957e-18	1.01555721e+00	-1.11711293e-01	-8.99873449e-01	3.46994075e-01	1.46553450e+00	1.68895709e+00	3.46994075e-01	-3.46994075e-01	-3.92094843e-01	1.40765206e+00
0.14            	3.15547237e+00	3.36622090e-18	1.02004942e+00	-1.12205436e-01	-9.62212036e-01	3.47101960e-01	1.46553075e+00	1.68994162e+00	3.47101960e-01	-3.47101960e-01	-4.52187327e-01	1.47223675e+00
0.141           	3.15485173e+00	3.28492431e-18	1.02734934e+00	-1.13008427e-01	-1.02251997e+00	3.47033690e-01	1.46441744e+00	1.69043429e+00	3.47033690e-01	-3.47033690e-01	-5.08845304e-01	1.53619464e+00
0.142           	3.15313740e+00	3.20076349e-18	1.03472700e+00	-1.13819970e-01	-1.08067859e+00	3.46845114e-01	1.46274873e+00	1.69038867e+00	3.46845114e-01	-3.46845114e-01	-5.63315090e-01	1.59804209e+00
0.143           	3.15150916e+00	3.11489321e-18	1.04321470e+00	-1.14753617e-01	-1.13657820e+00	3.46666008e-01	1.46100097e+00	1.69050820e+00	3.46666008e-01	-3.46666008e-01	-6.14970852e-01	1.65818555e+00
0.144           	3.14947603e+00	3.02459791e-18	1.05200142e+00	-1.15720156e-01	-1.19011079e+00	3.46442363e-01	1.45901786e+00	1.69045817e+00	3.46442363e-01	-3.46442363e-01	-6.64110086e-01	1.71611150e+00