# Force coefficients
# dragDir       : (1.00000000e+00 0.00000000e+00 0.00000000e+00)
# sideDir       : (0.00000000e+00 0.00000000e+00 -1.00000000e+00)
# liftDir       : (0.00000000e+00 1.00000000e+00 0.00000000e+00)
# rollAxis      : (1.00000000e+00 0.00000000e+00 0.00000000e+00)
# pitchAxis     : (0.00000000e+00 0.00000000e+00 -1.00000000e+00)
# yawAxis       : (0.00000000e+00 1.00000000e+00 0.00000000e+00)
# magUInf       : 1.00000000e+00
# lRef          : 1.00000000e-01
# Aref          : 1.00000000e-03
# CofR          : (2.00000000e-01 2.00000000e-01 5.00000000e-03)
#
# Time          	Cd              	Cs              	Cl              	CmRoll          	CmPitch         	CmYaw           	Cd(f)           	Cd(r)           	Cs(f)           	Cs(r)           	Cl(f)           	Cl(r)           
2.19            	3.08620375e+00	2.06796778e-18	-4.07767811e-01	4.48544592e-02	-4.73451919e-05	3.39482412e-01	1.58795633e+00	1.49824741e+00	3.39482412e-01	-3.39482412e-01	-2.03931250e-01	-2.03836560e-01
2.1905          	3.08620404e+00	2.06974888e-18	-4.04561430e-01	4.45017573e-02	1.30034310e-06	3.39482445e-01	1.58760378e+00	1.49860027e+00	3.39482445e-01	-3.39482445e-01	-2.02279415e-01	-2.02282015e-01
2.191           	3.08635653e+00	2.07145425e-18	-4.01567463e-01	4.41724210e-02	8.43602207e-03	3.39499218e-01	1.58735069e+00	1.49900584e+00	3.39499218e-01	-3.39499218e-01	-1.92347710e-01	-2.09219754e-01
2.1915          	3.08640642e+00	2.07340457e-18	-3.98671577e-01	4.38538735e-02	1.59214251e-02	3.39504706e-01	1.58705708e+00	1.49934934e+00	3.39504706e-01	-3.39504706e-01	-1.83414363e-01	-2.15257214e-01
2.192           	3.08637451e+00	2.07568202e-18	-3.95519413e-01	4.35071355e-02	2.26265236e-02	3.39501196e-01	1.58669439e+00	1.49968012e+00	3.39501196e-01	-3.39501196e-01	-1.75133183e-01	-2.20386230e-01
2.1925          	3.08622706e+00	2.07835636e-18	-3.92406187e-01	4.31646805e-02	2.86870564e-02	3.39484976e-01	1.58627821e+00	1.49994885e+00	3.39484976e-01	-3.39484976e-01	-1.67516037e-01	-2.24890150e-01
2.193           	3.08618726e+00	2.08128718e-18	-3.89504969e-01	4.28455466e-02	3.42123224e-02	3.39480598e-01	1.58593918e+00	1.50024808e+00	3.39480598e-01	-3.39480598e-01	-1.60540162e-01	-2.28964807e-01
2.1935          	3.08601313e+00	2.08418706e-18	-3.86465562e-01	4.25112118e-02	3.92905736e-02	3.39461444e-01	1.58551778e+00	1.50049535e+00	3.39461444e-01	-3.39461444e-01	-1.53942207e-01	-2.32523355e-01
2.194           	3.08601265e+00	2.08711137e-18	-3.83352840e-01	4.21688124e-02	4.39932926e-02	3.39461391e-01	1.58517514e+00	1.50083751e+00	3.39461391e-01	-3.39461391e-01	-1.47683128e-01	-2.35669713e-01
2.1945          	3.08601164e+00	2.09008731e-18	-3.80462223e-01	4.18508446e-02	4.83785713e-02	3.39461280e-01	1.58485666e+00	1.50115497e+00	3.39461280e-01	-3.39461280e-01	-1.41852540e-01	-2.38609683e-01
2.195           	3.08596643e+00	2.09326135e-18	-3.77480631e-01	4.15228694e-02	5.24937891e-02	3.39456307e-01	1.58450609e+00	1.50146035e+00	3.39456307e-01	-3.39456307e-01	-1.36246526e-01	-2.41234105e-01
2.1955          	3.08591382e+00	2.09660694e-18	-3.74528182e-01	4.11981000e-02	5.63777449e-02	3.39450520e-01	1.58415501e+00	1.50175881e+00	3.39450520e-01	-3.39450520e-01	-1.30886346e-01	-2.43641836e-01
2.196           	3.08583812e+00	2.09999183e-18	-3.71559342e-01	4.08715276e-02	6.00623253e-02	3.39442193e-01	1.58379059e+00	1.50204753e+00	3.39442193e-01	-3.39442193e-01	-1.25717346e-01	-2.45841996e-01
2.1965          	3.08572328e+00	2.10322660e-18	-3.68785427e-01	4.05663969e-02	6.35738424e-02	3.39429560e-01	1.58342804e+00	1.50229524e+00	3.39429560e-01	-3.39429560e-01	-1.20818871e-01	-2.47966556e-01
2.197           	3.08558703e+00	2.10707030e-18	-3.65731281e-01	4.02304409e-02	6.69341369e-02	3.39414574e-01	1.58302396e+00	1.50256308e+00	3.39414574e-01	-3.39414574e-01	-1.15931504e-01	-2.49799777e-01
2.1975          	3.08545577e+00	2.11079082e-18	-3.62778927e-01	3.99056819e-02	7.01614266e-02	3.39400135e-01	1.58263357e+00	1.50282220e+00	3.39400135e-01	-3.39400135e-01	-1.11228037e-01	-2.51550890e-01
2.198           	3.08538003e+00	2.11449052e-18	-3.59870370e-01	3.95857407e-02	7.32709201e-02	3.39391803e-01	1.58227575e+00	1.50310427e+00	3.39391803e-01	-3.39391803e-01	-1.06664265e-01	-2.53206105e-01
2.1985          	3.08519200e+00	2.11730429e-18	-3.57248552e-01	3.92973407e-02	7.62754346e-02	3.39371119e-01	1.58189334e+00	1.50329866e+00	3.39371119e-01	-3.39371119e-01	-1.02348841e-01	-2.54899711e-01
2.199           	3.08545818e+00	2.12223987e-18	-3.54149386e-01	3.89564324e-02	7.91858971e-02	3.39400400e-01	1.58168552e+00	1.50377266e+00	3.39400400e-01	-3.39400400e-01	-9.78887958e-02	-2.56260590e-01
2.1995          	3.08563574e+00	2.12519475e-18	-3.50970915e-01	3.86068007e-02	8.20115413e-02	3.39419932e-01	1.58142467e+00	1.50421107e+00	3.39419932e-01	-3.39419932e-01	-9.34739163e-02	-2.57496999e-01
2.2             	3.08504099e+00	2.13103108e-18	-3.48672431e-01	3.83539674e-02	8.47603915e-02	3.39354509e-01	1.58087446e+00	1.50416653e+00	3.39354509e-01	-3.39354509e-01	-8.95758239e-02	-2.59096607e-01
2.2005          	3.08488249e+00	2.13545380e-18	-3.45759166e-01	3.80335083e-02	8.74391495e-02	3.39337074e-01	1.58047476e+00	1.50440774e+00	3.39337074e-01	-3.39337074e-01	-8.54404337e-02	-2.60318733e-01
2.201           	3.08475658e+00	2.13945872e-18	-3.42736641e-01	3.77010305e-02	8.07003902e-02	3.39323224e-01	1.58007932e+00	1.50467726e+00	3.39323224e-01	-3.39323224e-01	-9.06679301e-02	-2.52068711e-01
2.2015          	3.08459759e+00	2.14324424e-18	-3.39533278e-01	3.73486606e-02	7.49613161e-02	3.39305735e-01	1.57964745e+00	1.50495013e+00	3.39305735e-01	-3.39305735e-01	-9.48053231e-02	-2.44727955e-01
2.202           	3.08452406e+00	2.14704154e-18	-3.36415449e-01	3.70056994e-02	7.00379011e-02	3.39297647e-01	1.57926773e+00	1.50525633e+00	3.39297647e-01	-3.39297647e-01	-9.81698234e-02	-2.38245626e-01
2.2025          	3.08441171e+00	2.15049740e-18	-3.33162588e-01	3.66478847e-02	6.57826847e-02	3.39285288e-01	1.57885374e+00	1.50555797e+00	3.39285288e-01	-3.39285288e-01	-1.00798609e-01	-2.32363979e-01
2.203           	3.08424784e+00	2.15376147e-18	-3.29856087e-01	3.62841696e-02	6.20772528e-02	3.39267262e-01	1.57840809e+00	1.50583975e+00	3.39267262e-01	-3.39267262e-01	-1.02850791e-01	-2.27005296e-01
2.2035          	3.08410046e+00	2.15686665e-18	-3.26566649e-01	3.59223314e-02	5.88262653e-02	3.39251051e-01	1.57797256e+00	1.50612790e+00	3.39251051e-01	-3.39251051e-01	-1.04457059e-01	-2.22109590e-01
2.204           	3.08406348e+00	2.15995724e-18	-3.23128411e-01	3.55441252e-02	5.59527510e-02	3.39246982e-01	1.57757586e+00	1.50648761e+00	3.39246982e-01	-3.39246982e-01	-1.05611455e-01	-2.17516957e-01
2.2045          	3.08393929e+00	2.16305558e-18	-3.19664733e-01	3.51631206e-02	5.33943907e-02	3.39233322e-01	1.57713277e+00	1.50680652e+00	3.39233322e-01	-3.39233322e-01	-1.06437976e-01	-2.13226757e-01
2.205           	3.08379491e+00	2.16552158e-18	-3.16138737e-01	3.47752611e-02	5.11005656e-02	3.39217440e-01	1.57667271e+00	1.50712219e+00	3.39217440e-01	-3.39217440e-01	-1.06968803e-01	-2.09169934e-01
2.2055          	3.08361896e+00	2.16804165e-18	-3.12611027e-01	3.43872130e-02	4.90300217e-02	3.39198085e-01	1.57619669e+00	1.50742227e+00	3.39198085e-01	-3.39198085e-01	-1.07275492e-01	-2.05335535e-01
2.206           	3.08354068e+00	2.17070866e-18	-3.09168501e-01	3.40085352e-02	4.71490148e-02	3.39189475e-01	1.57577888e+00	1.50776181e+00	3.39189475e-01	-3.39189475e-01	-1.07435236e-01	-2.01733266e-01
2.2065          	3.08339473e+00	2.17324246e-18	-3.05663170e-01	3.36229487e-02	4.54298373e-02	3.39173420e-01	1.57532031e+00	1.50807442e+00	3.39173420e-01	-3.39173420e-01	-1.07401748e-01	-1.98261422e-01
2.207           	3.08321034e+00	2.17539854e-18	-3.02075343e-01	3.32282877e-02	4.38496439e-02	3.39153137e-01	1.57483346e+00	1.50837688e+00	3.39153137e-01	-3.39153137e-01	-1.07188027e-01	-1.94887315e-01
2.2075          	3.08306234e+00	2.17795149e-18	-2.98134909e-01	3.27948400e-02	4.23895192e-02	3.39136857e-01	1.57432601e+00	1.50873633e+00	3.39136857e-01	-3.39136857e-01	-1.06677935e-01	-1.91456974e-01
2.208           	3.08312761e+00	2.18072940e-18	-2.94240258e-01	3.23664284e-02	4.10337355e-02	3.39144037e-01	1.57393023e+00	1.50919738e+00	3.39144037e-01	-3.39144037e-01	-1.06086394e-01	-1.88153865e-01
2.2085          	3.08296797e+00	2.18289154e-18	-2.90282513e-01	3.19310764e-02	3.97691510e-02	3.39126477e-01	1.57341506e+00	1.50955291e+00	3.39126477e-01	-3.39126477e-01	-1.05372105e-01	-1.84910407e-01
2.209           	3.08286912e+00	2.18508048e-18	-2.86567151e-01	3.15223866e-02	3.85847321e-02	3.39115603e-01	1.57295695e+00	1.50991217e+00	3.39115603e-01	-3.39115603e-01	-1.04698844e-01	-1.81868308e-01
2.2095          	3.08271237e+00	2.18707920e-18	-2.82626576e-01	3.10889234e-02	3.74711686e-02	3.39098361e-01	1.57244511e+00	1.51026726e+00	3.39098361e-01	-3.39098361e-01	-1.03842120e-01	-1.78784457e-01
2.21            	3.08258000e+00	2.18930024e-18	-2.78772718e-01	3.06649990e-02	3.64205661e-02	3.39083800e-01	1.57195500e+00	1.51062500e+00	3.39083800e-01	-3.39083800e-01	-1.02965793e-01	-1.75806925e-01
2.2105          	3.08247777e+00	2.19125814e-18	-2.74773653e-01	3.02251018e-02	3.54261958e-02	3.39072554e-01	1.57146399e+00	1.51101378e+00	3.39072554e-01	-3.39072554e-01	-1.01960631e-01	-1.72813022e-01
2.211           	3.08232267e+00	2.19314321e-18	-2.70861313e-01	2.97947444e-02	3.40443481e-02	3.39055494e-01	1.57095608e+00	1.51136659e+00	3.39055494e-01	-3.39055494e-01	-1.01386308e-01	-1.69475004e-01
2.2115          	3.08217225e+00	2.19494975e-18	-2.66831553e-01	2.93514709e-02	3.27575788e-02	3.39038947e-01	1.57043759e+00	1.51173465e+00	3.39038947e-01	-3.39038947e-01	-1.00658198e-01	-1.66173356e-01
2.212           	3.08204742e+00	2.19671751e-18	-2.62794686e-01	2.89074155e-02	3.15527661e-02	3.39025216e-01	1.56993112e+00	1.51211629e+00	3.39025216e-01	-3.39025216e-01	-9.98445771e-02	-1.62950109e-01
2.2125          	3.08195765e+00	2.19831399e-18	-2.58840685e-01	2.84724754e-02	3.04190862e-02	3.39015341e-01	1.56945130e+00	1.51250635e+00	3.39015341e-01	-3.39015341e-01	-9.90012565e-02	-1.59839429e-01
2.213           	3.08174953e+00	2.20003824e-18	-2.54618669e-01	2.80080535e-02	2.93475688e-02	3.38992449e-01	1.56888282e+00	1.51286671e+00	3.38992449e-01	-3.38992449e-01	-9.79617654e-02	-1.56656903e-01
2.2135          	3.08161383e+00	2.20165129e-18	-2.50377042e-01	2.75414747e-02	2.83307377e-02	3.38977521e-01	1.56834839e+00	1.51326544e+00	3.38977521e-01	-3.38977521e-01	-9.68577835e-02	-1.53519259e-01
2.214           	3.08149955e+00	2.20310996e-18	-2.46106841e-01	2.70717525e-02	2.73623312e-02	3.38964951e-01	1.56782153e+00	1.51367802e+00	3.38964951e-01	-3.38964951e-01	-9.56910891e-02	-1.50415751e-01
2.2145          	3.08135809e+00	2.20464035e-18	-2.41948540e-01	2.66143393e-02	2.64370750e-02	3.38949389e-01	1.56729338e+00	1.51406470e+00	3.38949389e-01	-3.38949389e-01	-9.45371947e-02	-1.47411345e-01
2.215           	3.08123792e+00	2.20600705e-18	-2.37619572e-01	2.61381529e-02	2.55505015e-02	3.38936171e-01	1.56675711e+00	1.51448081e+00	3.38936171e-01	-3.38936171e-01	-9.32592845e-02	-1.44360287e-01
2.2155          	3.08109822e+00	2.20730671e-18	-2.33307535e-01	2.56638288e-02	2.46988034e-02	3.38920804e-01	1.56621294e+00	1.51488528e+00	3.38920804e-01	-3.38920804e-01	-9.19549639e-02	-1.41352571e-01
2.216           	3.08098728e+00	2.20877544e-18	-2.29079513e-01	2.51987465e-02	2.38787179e-02	3.38908600e-01	1.56569238e+00	1.51529489e+00	3.38908600e-01	-3.38908600e-01	-9.06610388e-02	-1.38418475e-01
2.2165          	3.08084717e+00	2.20978611e-18	-2.24740040e-01	2.47214044e-02	2.30874316e-02	3.38893189e-01	1.56514499e+00	1.51570218e+00	3.38893189e-01	-3.38893189e-01	-8.92825882e-02	-1.35457451e-01
2.217           	3.08070976e+00	2.21087755e-18	-2.20246365e-01	2.42271001e-02	2.23225043e-02	3.38878073e-01	1.56458198e+00	1.51612778e+00	3.38878073e-01	-3.38878073e-01	-8.78006781e-02	-1.32445687e-01
2.2175          	3.08056645e+00	2.21200743e-18	-2.15894270e-01	2.37483697e-02	2.15818073e-02	3.38862309e-01	1.56403159e+00	1.51653485e+00	3.38862309e-01	-3.38862309e-01	-8.63653278e-02	-1.29528942e-01
2.218           	3.08047099e+00	2.21301656e-18	-2.11809372e-01	2.32990309e-02	2.08634739e-02	3.38851808e-01	1.56353452e+00	1.51693646e+00	3.38851808e-01	-3.38851808e-01	-8.50412120e-02	-1.26768160e-01
2.2185          	3.08027058e+00	2.21380481e-18	-2.07152209e-01	2.27867430e-02	2.01658569e-02	3.38829764e-01	1.56292203e+00	1.51734855e+00	3.38829764e-01	-3.38829764e-01	-8.34102478e-02	-1.23741962e-01
2.219           	3.08011184e+00	2.21494381e-18	-2.02606264e-01	2.22866890e-02	1.94874951e-02	3.38812302e-01	1.56234261e+00	1.51776923e+00	3.38812302e-01	-3.38812302e-01	-8.18156367e-02	-1.20790627e-01
2.2195          	3.08003786e+00	2.21593250e-18	-1.98092085e-01	2.17901294e-02	1.88270872e-02	3.38804165e-01	1.56180906e+00	1.51822880e+00	3.38804165e-01	-3.38804165e-01	-8.02189553e-02	-1.17873130e-01
2.22            	3.07987487e+00	2.21679317e-18	-1.93559666e-01	2.12915633e-02	1.81834668e-02	3.38786236e-01	1.56122900e+00	1.51864587e+00	3.38786236e-01	-3.38786236e-01	-7.85963663e-02	-1.14963300e-01
2.2205          	3.07976393e+00	2.21763608e-18	-1.89049398e-01	2.07954338e-02	1.75555846e-02	3.38774032e-01	1.56067740e+00	1.51908653e+00	3.38774032e-01	-3.38774032e-01	-7.69691144e-02	-1.12080284e-01
2.221           	3.07968229e+00	2.21831891e-18	-1.84515257e-01	2.02966782e-02	1.60499453e-02	3.38765051e-01	1.56013782e+00	1.51954446e+00	3.38765051e-01	-3.38765051e-01	-7.62076831e-02	-1.08307574e-01
2.2215          	3.07954523e+00	2.21895309e-18	-1.80001339e-01	1.98001473e-02	1.46592685e-02	3.38749975e-01	1.55957276e+00	1.51997247e+00	3.38749975e-01	-3.38749975e-01	-7.53414012e-02	-1.04659938e-01
2.222           	3.07941628e+00	2.21948700e-18	-1.75495480e-01	1.93045028e-02	1.33647814e-02	3.38735791e-01	1.55901264e+00	1.52040364e+00	3.38735791e-01	-3.38735791e-01	-7.43829585e-02	-1.01112521e-01
2.2225          	3.07927067e+00	2.21991662e-18	-1.70823732e-01	1.87906106e-02	1.21513192e-02	3.38719774e-01	1.55842595e+00	1.52084472e+00	3.38719774e-01	-3.38719774e-01	-7.32605470e-02	-9.75631853e-02
2.223           	3.07914133e+00	2.22049084e-18	-1.66267288e-01	1.82894017e-02	1.10065921e-02	3.38705547e-01	1.55786007e+00	1.52128126e+00	3.38705547e-01	-3.38705547e-01	-7.21270522e-02	-9.41402363e-02
2.2235          	3.07906547e+00	2.22096623e-18	-1.61651125e-01	1.77816238e-02	9.92060337e-03	3.38697202e-01	1.55731436e+00	1.52175111e+00	3.38697202e-01	-3.38697202e-01	-7.09049592e-02	-9.07461659e-02
2.224           	3.07892570e+00	2.22133531e-18	-1.56895045e-01	1.72584550e-02	8.88518716e-03	3.38681827e-01	1.55672130e+00	1.52220439e+00	3.38681827e-01	-3.38681827e-01	-6.95623355e-02	-8.73327098e-02
2.2245          	3.07882589e+00	2.22176364e-18	-1.52145126e-01	1.67359638e-02	7.89364451e-03	3.38670848e-01	1.55614891e+00	1.52267698e+00	3.38670848e-01	-3.38670848e-01	-6.81789184e-02	-8.39662074e-02
2.225           	3.07868746e+00	2.22178271e-18	-1.47340539e-01	1.62074593e-02	6.94045414e-03	3.38655620e-01	1.55555119e+00	1.52313627e+00	3.38655620e-01	-3.38655620e-01	-6.67298152e-02	-8.06107235e-02
2.2255          	3.07856378e+00	2.22184052e-18	-1.42660092e-01	1.56926101e-02	6.02104282e-03	3.38642016e-01	1.55497450e+00	1.52358928e+00	3.38642016e-01	-3.38642016e-01	-6.53090032e-02	-7.73510888e-02
2.226           	3.07842670e+00	2.22200320e-18	-1.37874583e-01	1.51662041e-02	5.13160260e-03	3.38626937e-01	1.55437955e+00	1.52404714e+00	3.38626937e-01	-3.38626937e-01	-6.38056888e-02	-7.40688940e-02
2.2265          	3.07833187e+00	2.22204722e-18	-1.33102208e-01	1.46412428e-02	4.26894463e-03	3.38616505e-01	1.55380718e+00	1.52452469e+00	3.38616505e-01	-3.38616505e-01	-6.22821592e-02	-7.08200484e-02
2.227           	3.07822286e+00	2.22205409e-18	-1.28323384e-01	1.41155722e-02	3.43038308e-03	3.38604515e-01	1.55322700e+00	1.52499586e+00	3.38604515e-01	-3.38604515e-01	-6.07313088e-02	-6.75920749e-02
2.2275          	3.07813759e+00	2.22204327e-18	-1.23470636e-01	1.35817700e-02	2.61364245e-03	3.38595135e-01	1.55265057e+00	1.52548703e+00	3.38595135e-01	-3.38595135e-01	-5.91216757e-02	-6.43489606e-02
2.228           	3.07800630e+00	2.22167232e-18	-1.18816853e-01	1.30698538e-02	1.81678005e-03	3.38580694e-01	1.55207301e+00	1.52593330e+00	3.38580694e-01	-3.38580694e-01	-5.75916462e-02	-6.12252063e-02
2.2285          	3.07783486e+00	2.22138419e-18	-1.13903021e-01	1.25293323e-02	1.03813104e-03	3.38561835e-01	1.55144676e+00	1.52638810e+00	3.38561835e-01	-3.38561835e-01	-5.59133793e-02	-5.79896413e-02
2.229           	3.07761872e+00	2.22069081e-18	-1.09241315e-01	1.20165447e-02	2.76256366e-04	3.38538059e-01	1.55082590e+00	1.52679281e+00	3.38538059e-01	-3.38538059e-01	-5.43444013e-02	-5.48969140e-02
2.2295          	3.07751498e+00	2.22031663e-18	-1.04354392e-01	1.14789831e-02	-4.70091550e-04	3.38526647e-01	1.55023647e+00	1.52727851e+00	3.38526647e-01	-3.38526647e-01	-5.26472875e-02	-5.17071044e-02
2.23            	3.07745700e+00	2.21996391e-18	-9.96317385e-02	1.09594912e-02	-1.20200488e-03	3.38520270e-01	1.54968799e+00	1.52776901e+00	3.38520270e-01	-3.38520270e-01	-5.10178741e-02	-4.86138644e-02
2.2305          	3.07738411e+00	2.21944006e-18	-9.47412379e-02	1.04215362e-02	-1.92044911e-03	3.38512252e-01	1.54911359e+00	1.52827052e+00	3.38512252e-01	-3.38512252e-01	-4.92910681e-02	-4.54501699e-02
2.231           	3.07734473e+00	2.21897672e-18	-8.97318756e-02	9.87050632e-03	-2.18738215e-03	3.38507920e-01	1.54854287e+00	1.52880186e+00	3.38507920e-01	-3.38507920e-01	-4.70533200e-02	-4.26785557e-02
2.2315          	3.07716716e+00	2.21842888e-18	-8.48899025e-02	9.33788928e-03	-2.49213287e-03	3.38488387e-01	1.54792147e+00	1.52924569e+00	3.38488387e-01	-3.38488387e-01	-4.49370841e-02	-3.99528184e-02
2.232           	3.07706340e+00	2.21779060e-18	-7.99197406e-02	8.79117146e-03	-2.82653385e-03	3.38476974e-01	1.54732287e+00	1.52974053e+00	3.38476974e-01	-3.38476974e-01	-4.27864041e-02	-3.71333364e-02
2.2325          	3.07702279e+00	2.21687537e-18	-7.50537808e-02	8.25591589e-03	-3.18409414e-03	3.38472507e-01	1.54676731e+00	1.53025548e+00	3.38472507e-01	-3.38472507e-01	-4.07109845e-02	-3.43427963e-02
2.233           	3.07685379e+00	2.21623360e-18	-7.01727281e-02	7.71900009e-03	-3.55963614e-03	3.38453917e-01	1.54614590e+00	1.53070790e+00	3.38453917e-01	-3.38453917e-01	-3.86460002e-02	-3.15267279e-02
2.2335          	3.07660352e+00	2.21612156e-18	-6.52165855e-02	7.17382441e-03	-3.94903287e-03	3.38426387e-01	1.54547559e+00	1.53112794e+00	3.38426387e-01	-3.38426387e-01	-3.65573256e-02	-2.86592599e-02
2.234           	3.07647957e+00	2.21530509e-18	-6.03480347e-02	6.63828382e-03	-4.34901867e-03	3.38412753e-01	1.54487807e+00	1.53160150e+00	3.38412753e-01	-3.38412753e-01	-3.45230360e-02	-2.58249987e-02
2.2345          	3.07640031e+00	2.21492682e-18	-5.55595864e-02	6.11155450e-03	-4.75698826e-03	3.38404035e-01	1.54431171e+00	1.53208860e+00	3.38404035e-01	-3.38404035e-01	-3.25367815e-02	-2.30228049e-02
2.235           	3.07627384e+00	2.21382437e-18	-5.07508363e-02	5.58259199e-03	-5.17083592e-03	3.38390122e-01	1.54371951e+00	1.53255433e+00	3.38390122e-01	-3.38390122e-01	-3.05462541e-02	-2.02045822e-02
2.2355          	3.07607628e+00	2.21270903e-18	-4.56242627e-02	5.01866889e-03	-5.58889856e-03	3.38368391e-01	1.54305681e+00	1.53301947e+00	3.38368391e-01	-3.38368391e-01	-2.84010299e-02	-1.72232328e-02
2.236           	3.07620236e+00	2.21225962e-18	-4.07479299e-02	4.48227229e-03	-6.00982054e-03	3.38382260e-01	1.54258345e+00	1.53361891e+00	3.38382260e-01	-3.38382260e-01	-2.63837855e-02	-1.43641444e-02
2.2365          	3.07621055e+00	2.21200950e-18	-3.57192653e-02	3.92911918e-03	-6.43249800e-03	3.38383160e-01	1.54203439e+00	1.53417615e+00	3.38383160e-01	-3.38383160e-01	-2.42921306e-02	-1.14271346e-02
2.237           	3.07614670e+00	2.21108796e-18	-3.08830805e-02	3.39713885e-03	-6.85607696e-03	3.38376137e-01	1.54147049e+00	1.53467621e+00	3.38376137e-01	-3.38376137e-01	-2.22976172e-02	-8.58546328e-03
2.2375          	3.07609419e+00	2.21027725e-18	-2.58699562e-02	2.84569519e-03	-7.27990352e-03	3.38370361e-01	1.54089279e+00	1.53520140e+00	3.38370361e-01	-3.38370361e-01	-2.02148816e-02	-5.65507459e-03
2.238           	3.07601275e+00	2.20932111e-18	-2.09721288e-02	2.30693417e-03	-7.70341906e-03	3.38361402e-01	1.54031331e+00	1.53569944e+00	3.38361402e-01	-3.38361402e-01	-1.81894835e-02	-2.78264533e-03
2.2385          	3.07594020e+00	2.20830867e-18	-1.59685940e-02	1.75654534e-03	-8.12619010e-03	3.38353422e-01	1.53972665e+00	1.53621356e+00	3.38353422e-01	-3.38353422e-01	-1.61104871e-02	1.41893106e-04
2.239           	3.07586492e+00	2.20727255e-18	-1.11442655e-02	1.22586921e-03	-8.54786712e-03	3.38345142e-01	1.53915833e+00	1.53670659e+00	3.38345142e-01	-3.38345142e-01	-1.41199999e-02	2.97573436e-03
2.2395          	3.07583728e+00	2.20616496e-18	-6.15637258e-03	6.77200984e-04	-8.96817474e-03	3.38342101e-01	1.53859584e+00	1.53724144e+00	3.38342101e-01	-3.38342101e-01	-1.20463610e-02	5.88998845e-03
2.24            	3.07576600e+00	2.20517837e-18	-1.08469924e-03	1.19316916e-04	-9.38689355e-03	3.38334260e-01	1.53800232e+00	1.53776368e+00	3.38334260e-01	-3.38334260e-01	-9.92924317e-03	8.84454394e-03
2.2405          	3.07550227e+00	2.20392393e-18	3.73725393e-03	-4.11097932e-04	-9.80381842e-03	3.38305250e-01	1.53734004e+00	1.53816224e+00	3.38305250e-01	-3.38305250e-01	-7.93519145e-03	1.16724454e-02
2.241           	3.07536533e+00	2.20276984e-18	8.59365317e-03	-9.45301849e-04	-8.06140597e-03	3.38290187e-01	1.53673737e+00	1.53862797e+00	3.38290187e-01	-3.38290187e-01	-3.76457938e-03	1.23582325e-02
2.2415          	3.07530351e+00	2.20181455e-18	1.36286759e-02	-1.49915435e-03	-6.56120810e-03	3.38283386e-01	1.53615260e+00	1.53915091e+00	3.38283386e-01	-3.38283386e-01	2.53129851e-04	1.33755460e-02
2.242           	3.07525012e+00	2.20108496e-18	1.84818018e-02	-2.03299820e-03	-5.25966245e-03	3.38277514e-01	1.53559206e+00	1.53965806e+00	3.38277514e-01	-3.38277514e-01	3.98123847e-03	1.45005634e-02
2.2425          	3.07519021e+00	2.19991723e-18	2.33248200e-02	-2.56573020e-03	-4.12178928e-03	3.38270923e-01	1.53502937e+00	1.54016083e+00	3.38270923e-01	-3.38270923e-01	7.54062072e-03	1.57841993e-02
2.243           	3.07513427e+00	2.19892035e-18	2.82383668e-02	-3.10622035e-03	-3.11942918e-03	3.38264769e-01	1.53446091e+00	1.54067335e+00	3.38264769e-01	-3.38264769e-01	1.09997542e-02	1.72386126e-02
2.2435          	3.07503657e+00	2.19785148e-18	3.29199509e-02	-3.62119460e-03	-2.22984978e-03	3.38254023e-01	1.53389709e+00	1.54113948e+00	3.38254023e-01	-3.38254023e-01	1.42301257e-02	1.86898253e-02
2.244           	3.07494205e+00	2.19686768e-18	3.79421968e-02	-4.17364165e-03	-1.43464488e-03	3.38243626e-01	1.53329738e+00	1.54164467e+00	3.38243626e-01	-3.38243626e-01	1.75364535e-02	2.04057433e-02
2.2445          	3.07482585e+00	2.19590944e-18	4.27015198e-02	-4.69716718e-03	-7.18862588e-04	3.38230844e-01	1.53271576e+00	1.54211009e+00	3.38230844e-01	-3.38230844e-01	2.06318973e-02	2.20696225e-02
2.245           	3.07481146e+00	2.19499913e-18	4.74231216e-02	-5.21654338e-03	-7.03132957e-05	3.38229260e-01	1.53218918e+00	1.54262227e+00	3.38229260e-01	-3.38229260e-01	2.36412475e-02	2.37818741e-02
2.2455          	3.07473430e+00	2.19393870e-18	5.22397637e-02	-5.74637401e-03	5.20974304e-04	3.38220773e-01	1.53162078e+00	1.54311353e+00	3.38220773e-01	-3.38220773e-01	2.66408562e-02	2.55989075e-02
2.246           	3.07460195e+00	2.19285843e-18	5.69672372e-02	-6.26639609e-03	1.06319260e-03	3.38206215e-01	1.53103458e+00	1.54356737e+00	3.38206215e-01	-3.38206215e-01	2.95468112e-02	2.74204260e-02
2.2465          	3.07471501e+00	2.19195901e-18	6.16840168e-02	-6.78524185e-03	1.56310385e-03	3.38218651e-01	1.53057226e+00	1.54414275e+00	3.38218651e-01	-3.38218651e-01	3.24051122e-02	2.92789045e-02
2.247           	3.07501043e+00	2.19110593e-18	6.62435173e-02	-7.28678690e-03	2.02631284e-03	3.38251147e-01	1.53021843e+00	1.54479200e+00	3.38251147e-01	-3.38251147e-01	3.51480715e-02	3.10954458e-02
2.2475          	3.07494556e+00	2.19020844e-18	7.10348504e-02	-7.81383354e-03	2.45746962e-03	3.38244011e-01	1.52965895e+00	1.54528661e+00	3.38244011e-01	-3.38244011e-01	3.79748948e-02	3.30599556e-02
2.248           	3.07492425e+00	2.18922010e-18	7.56366568e-02	-8.32003224e-03	2.86046865e-03	3.38241667e-01	1.52914209e+00	1.54578215e+00	3.38241667e-01	-3.38241667e-01	4.06787970e-02	3.49578597e-02
2.2485          	3.07488132e+00	2.18837629e-18	8.02705188e-02	-8.82975707e-03	3.23858778e-03	3.38236945e-01	1.52861090e+00	1.54627042e+00	3.38236945e-01	-3.38236945e-01	4.33738472e-02	3.68966716e-02
2.249           	3.07486382e+00	2.18707526e-18	8.47691222e-02	-9.32460344e-03	3.59459155e-03	3.38235020e-01	1.52810731e+00	1.54675651e+00	3.38235020e-01	-3.38235020e-01	4.59791527e-02	3.87899696e-02
2.2495          	3.07483053e+00	2.18615343e-18	8.95211069e-02	-9.84732176e-03	3.93083724e-03	3.38231358e-01	1.52756794e+00	1.54726258e+00	3.38231358e-01	-3.38231358e-01	4.86913907e-02	4.08297162e-02
2.25            	3.07480807e+00	2.18520113e-18	9.41960313e-02	-1.03615634e-02	4.24933381e-03	3.38228888e-01	1.52704247e+00	1.54776560e+00	3.38228888e-01	-3.38228888e-01	5.13473495e-02	4.28486818e-02
2.2505          	3.07475471e+00	2.18408966e-18	9.87905980e-02	-1.08669658e-02	4.55180635e-03	3.38223018e-01	1.52651039e+00	1.54824432e+00	3.38223018e-01	-3.38223018e-01	5.39471053e-02	4.48434926e-02
2.251           	3.07480912e+00	2.18296359e-18	1.03176898e-01	-1.13494588e-02	3.87132039e-03	3.38229004e-01	1.52605510e+00	1.54875402e+00	3.38229004e-01	-3.38229004e-01	5.54597694e-02	4.77171286e-02
2.2515          	3.07477988e+00	2.18194359e-18	1.07940333e-01	-1.18734366e-02	3.28720942e-03	3.38225787e-01	1.52551650e+00	1.54926338e+00	3.38225787e-01	-3.38225787e-01	5.72573757e-02	5.06829569e-02
2.252           	3.07483061e+00	2.18072865e-18	1.12435376e-01	-1.23678914e-02	2.78107799e-03	3.38231368e-01	1.52504742e+00	1.54978320e+00	3.38231368e-01	-3.38231368e-01	5.89987660e-02	5.34366100e-02
2.2525          	3.07471712e+00	2.17970087e-18	1.17020567e-01	-1.28722624e-02	2.33823680e-03	3.38218883e-01	1.52448630e+00	1.55023082e+00	3.38218883e-01	-3.38218883e-01	6.08485203e-02	5.61720467e-02
2.253           	3.07456492e+00	2.17857018e-18	1.21621377e-01	-1.33783515e-02	1.94693027e-03	3.38202141e-01	1.52390411e+00	1.55066081e+00	3.38202141e-01	-3.38202141e-01	6.27576188e-02	5.88637582e-02
2.2535          	3.07439541e+00	2.17768728e-18	1.26313928e-01	-1.38945321e-02	1.59773337e-03	3.38183495e-01	1.52330317e+00	1.55109224e+00	3.38183495e-01	-3.38183495e-01	6.47546974e-02	6.15592307e-02
2.254           	3.07442581e+00	2.17637722e-18	1.30892811e-01	-1.43982092e-02	1.28307604e-03	3.38186839e-01	1.52281470e+00	1.55161111e+00	3.38186839e-01	-3.38186839e-01	6.67294816e-02	6.41633295e-02
2.2545          	3.07445597e+00	2.17511538e-18	1.35352529e-01	-1.48887781e-02	9.96857472e-04	3.38190157e-01	1.52233921e+00	1.55211677e+00	3.38190157e-01	-3.38190157e-01	6.86731218e-02	6.66794068e-02
2.255           	3.07445458e+00	2.17377718e-18	1.39855430e-01	-1.53840972e-02	7.34150775e-04	3.38190003e-01	1.52184319e+00	1.55261139e+00	3.38190003e-01	-3.38190003e-01	7.06618655e-02	6.91935640e-02
2.2555          	3.07448488e+00	2.17254363e-18	1.44394527e-01	-1.58833979e-02	4.90966074e-04	3.38193336e-01	1.52135904e+00	1.55312584e+00	3.38193336e-01	-3.38193336e-01	7.26882295e-02	7.17062973e-02
2.256           	3.07449660e+00	2.17122685e-18	1.48954517e-01	-1.63849969e-02	2.64063294e-04	3.38194626e-01	1.52086330e+00	1.55363330e+00	3.38194626e-01	-3.38194626e-01	7.47413218e-02	7.42131952e-02
2.2565          	3.07453065e+00	2.16987211e-18	1.53314818e-01	-1.68646299e-02	5.08025874e-05	3.38198371e-01	1.52040069e+00	1.55412995e+00	3.38198371e-01	-3.38198371e-01	7.67082114e-02	7.66066063e-02
2.257           	3.07459874e+00	2.16853127e-18	1.57582053e-01	-1.73340259e-02	-1.50973312e-04	3.38205861e-01	1.51996534e+00	1.55463339e+00	3.38205861e-01	-3.38205861e-01	7.86400534e-02	7.89420000e-02
2.2575          	3.07454371e+00	2.16706376e-18	1.62266861e-01	-1.78493547e-02	-3.43037667e-04	3.38199808e-01	1.51942250e+00	1.55512121e+00	3.38199808e-01	-3.38199808e-01	8.07903927e-02	8.14764681e-02
2.258           	3.07453169e+00	2.16556040e-18	1.66749938e-01	-1.83424932e-02	-5.26847113e-04	3.38198485e-01	1.51892335e+00	1.55560834e+00	3.38198485e-01	-3.38198485e-01	8.28481221e-02	8.39018164e-02
2.2585          	3.07451238e+00	2.16430426e-18	1.71179016e-01	-1.88296918e-02	-7.03607116e-04	3.38196361e-01	1.51842650e+00	1.55608588e+00	3.38196361e-01	-3.38196361e-01	8.48859009e-02	8.62931151e-02
2.259           	3.07441156e+00	2.16278049e-18	1.75735959e-01	-1.93309555e-02	-8.74317972e-04	3.38185272e-01	1.51787482e+00	1.55653674e+00	3.38185272e-01	-3.38185272e-01	8.69936615e-02	8.87422975e-02
2.2595          	3.07458319e+00	2.16122801e-18	1.79966531e-01	-1.97963184e-02	-1.03981066e-03	3.38204151e-01	1.51749528e+00	1.55708792e+00	3.38204151e-01	-3.38204151e-01	8.89434548e-02	9.10230761e-02
2.26            	3.07495190e+00	2.15958019e-18	1.83959871e-01	-2.02355858e-02	-1.20078400e-03	3.38244709e-01	1.51724036e+00	1.55771153e+00	3.38244709e-01	-3.38244709e-01	9.07791516e-02	9.31807196e-02
2.2605          	3.07523858e+00	2.15812104e-18	1.88121151e-01	-2.06933266e-02	-1.35782213e-03	3.38276244e-01	1.51692597e+00	1.55831262e+00	3.38276244e-01	-3.38276244e-01	9.27027535e-02	9.54183978e-02
2.261           	3.07527539e+00	2.15632440e-18	1.92520524e-01	-2.11772577e-02	-2.09480328e-03	3.38280293e-01	1.51646044e+00	1.55881495e+00	3.38280293e-01	-3.38280293e-01	9.41654589e-02	9.83550655e-02
2.2615          	3.07540556e+00	2.15463639e-18	1.96688173e-01	-2.16356990e-02	-2.76272869e-03	3.38294611e-01	1.51606708e+00	1.55933848e+00	3.38294611e-01	-3.38294611e-01	9.55813577e-02	1.01106815e-01
2.262           	3.07549655e+00	2.15273542e-18	2.00835444e-01	-2.20918989e-02	-3.37371457e-03	3.38304620e-01	1.51565637e+00	1.55984017e+00	3.38304620e-01	-3.38304620e-01	9.70440077e-02	1.03791437e-01