# Force coefficients
# dragDir       : (1.00000000e+00 0.00000000e+00 0.00000000e+00)
# sideDir       : (0.00000000e+00 0.00000000e+00 -1.00000000e+00)
# liftDir       : (0.00000000e+00 1.00000000e+00 0.00000000e+00)
# rollAxis      : (1.00000000e+00 0.00000000e+00 0.00000000e+00)
# pitchAxis     : (0.00000000e+00 0.00000000e+00 -1.00000000e+00)
# yawAxis       : (0.00000000e+00 1.00000000e+00 0.00000000e+00)
# magUInf       : 1.00000000e+00
# lRef          : 1.00000000e-01
# Aref          : 1.00000000e-03
# CofR          : (2.00000000e-01 2.00000000e-01 5.00000000e-03)
#
# Time          	Cd              	Cs              	Cl              	CmRoll          	CmPitch         	CmYaw           	Cd(f)           	Cd(r)           	Cs(f)           	Cs(r)           	Cl(f)           	Cl(r)           
0.00058823529   	5.87179476e+02	-1.43682676e-14	-9.73727235e-01	1.07109996e-01	7.44844951e-01	6.45897423e+01	2.93696848e+02	2.93482628e+02	6.45897423e+01	-6.45897423e+01	2.57981334e-01	-1.23170857e+00
0.0013122172    	9.28837967e+00	-6.66331686e-18	-8.31839423e-02	9.15023366e-03	6.37214202e-01	1.02172176e+00	4.65334007e+00	4.63503960e+00	1.02172176e+00	-1.02172176e+00	5.95622231e-01	-6.78806173e-01
0.0021809955    	7.85730093e+00	-5.97244351e-18	-1.26592836e-01	1.39252120e-02	5.42489359e-01	8.64303103e-01	3.94257568e+00	3.91472525e+00	8.64303103e-01	-8.64303103e-01	4.79192941e-01	-6.05785777e-01
0.003158371     	6.65084623e+00	-5.46959800e-18	-1.36551043e-01	1.50206148e-02	4.65368602e-01	7.31593085e-01	3.34044373e+00	3.31040250e+00	7.31593085e-01	-7.31593085e-01	3.97093081e-01	-5.33644124e-01
0.0041357466    	5.79836715e+00	-5.05776094e-18	-1.44963360e-01	1.59459696e-02	4.08250753e-01	6.37820386e-01	2.91512954e+00	2.88323760e+00	6.37820386e-01	-6.37820386e-01	3.35769073e-01	-4.80732433e-01
0.0051131222    	5.16072872e+00	-4.70698950e-18	-1.52323174e-01	1.67555491e-02	3.64866352e-01	5.67680159e-01	2.59711991e+00	2.56360881e+00	5.67680159e-01	-5.67680159e-01	2.88704766e-01	-4.41027939e-01
0.0060904977    	4.67369453e+00	-4.40375068e-18	-1.59589207e-01	1.75548127e-02	3.30994839e-01	5.14106399e-01	2.35440208e+00	2.31929245e+00	5.14106399e-01	-5.14106399e-01	2.51200236e-01	-4.10789442e-01
0.0070678733    	4.29503198e+00	-4.13995944e-18	-1.66228474e-01	1.82851322e-02	3.03772703e-01	4.72453518e-01	2.16580112e+00	2.12923086e+00	4.72453518e-01	-4.72453518e-01	2.20658465e-01	-3.86886940e-01
0.0080452489    	3.99401117e+00	-3.90500813e-18	-1.73829942e-01	1.91212937e-02	2.81242746e-01	4.39341229e-01	2.01612688e+00	1.97788429e+00	4.39341229e-01	-4.39341229e-01	1.94327774e-01	-3.68157717e-01
0.0090226244    	3.75071600e+00	-3.69289840e-18	-1.81119913e-01	1.99231904e-02	2.62054743e-01	4.12578760e-01	1.89528119e+00	1.85543481e+00	4.12578760e-01	-4.12578760e-01	1.71494786e-01	-3.52614699e-01
0.01            	3.55208356e+00	-3.50254875e-18	-1.88589955e-01	2.07448951e-02	2.45268614e-01	3.90729191e-01	1.79678667e+00	1.75529688e+00	3.90729191e-01	-3.90729191e-01	1.50973637e-01	-3.39563592e-01
0.011           	3.38323066e+00	-3.32673330e-18	-1.95114581e-01	2.14626039e-02	2.29916246e-01	3.72155373e-01	1.71307794e+00	1.67015273e+00	3.72155373e-01	-3.72155373e-01	1.32358955e-01	-3.27473536e-01
0.012           	3.24129558e+00	-3.16403415e-18	-2.01930607e-01	2.22123668e-02	2.15875104e-01	3.56542514e-01	1.64286016e+00	1.59843543e+00	3.56542514e-01	-3.56542514e-01	1.14909801e-01	-3.16840408e-01
0.013           	3.12045555e+00	-3.01401449e-18	-2.08171401e-01	2.28988541e-02	2.02790128e-01	3.43250111e-01	1.58312663e+00	1.53732892e+00	3.43250111e-01	-3.43250111e-01	9.87044278e-02	-3.06875828e-01
0.014           	3.01628758e+00	-2.87506045e-18	-2.13582171e-01	2.34940389e-02	1.90404302e-01	3.31791634e-01	1.53163783e+00	1.48464975e+00	3.31791634e-01	-3.31791634e-01	8.36132167e-02	-2.97195388e-01
0.015           	2.92629597e+00	-2.74366990e-18	-2.18846157e-01	2.40730773e-02	1.78529302e-01	3.21892557e-01	1.48722106e+00	1.43907491e+00	3.21892557e-01	-3.21892557e-01	6.91062239e-02	-2.87952381e-01
0.016           	2.84825114e+00	-2.62149612e-18	-2.24033371e-01	2.46436708e-02	1.67024539e-01	3.13307625e-01	1.44876924e+00	1.39948190e+00	3.13307625e-01	-3.13307625e-01	5.50078530e-02	-2.79041224e-01
0.017           	2.77908192e+00	-2.50692286e-18	-2.28296827e-01	2.51126510e-02	1.55784957e-01	3.05699011e-01	1.41465361e+00	1.36442831e+00	3.05699011e-01	-3.05699011e-01	4.16365435e-02	-2.69933371e-01
0.018           	2.71754279e+00	-2.39839358e-18	-2.32901597e-01	2.56191757e-02	1.44730521e-01	2.98929706e-01	1.38439057e+00	1.33315222e+00	2.98929706e-01	-2.98929706e-01	2.82797218e-02	-2.61181319e-01
0.019           	2.66301269e+00	-2.29558682e-18	-2.37313706e-01	2.61045077e-02	1.33799922e-01	2.92931396e-01	1.35761085e+00	1.30540184e+00	2.92931396e-01	-2.92931396e-01	1.51430684e-02	-2.52456775e-01
0.02            	2.61452049e+00	-2.19800519e-18	-2.40247998e-01	2.64272798e-02	1.22945734e-01	2.87597254e-01	1.33368753e+00	1.28083297e+00	2.87597254e-01	-2.87597254e-01	2.82173453e-03	-2.43069733e-01
0.021           	2.57125077e+00	-2.10633461e-18	-2.44153964e-01	2.68569360e-02	1.12130708e-01	2.82837584e-01	1.31248232e+00	1.25876845e+00	2.82837584e-01	-2.82837584e-01	-9.94627433e-03	-2.34207690e-01
0.022           	2.53205258e+00	-2.01868560e-18	-2.47104904e-01	2.71815394e-02	1.01325685e-01	2.78525784e-01	1.29320783e+00	1.23884475e+00	2.78525784e-01	-2.78525784e-01	-2.22267673e-02	-2.24878137e-01
0.023           	2.49710995e+00	-1.93526384e-18	-2.49480014e-01	2.74428015e-02	9.05077761e-02	2.74682094e-01	1.27599778e+00	1.22111217e+00	2.74682094e-01	-2.74682094e-01	-3.42322307e-02	-2.15247783e-01
0.024           	2.46546850e+00	-1.85556291e-18	-2.52088091e-01	2.77296900e-02	7.96589004e-02	2.71201535e-01	1.26046394e+00	1.20500456e+00	2.71201535e-01	-2.71201535e-01	-4.63851451e-02	-2.05702946e-01
0.025           	2.43708298e+00	-1.77936483e-18	-2.54475214e-01	2.79922736e-02	6.87648270e-02	2.68079128e-01	1.24653377e+00	1.19054922e+00	2.68079128e-01	-2.68079128e-01	-5.84727802e-02	-1.96002434e-01
0.026           	2.41181941e+00	-1.70658915e-18	-2.57028926e-01	2.82731819e-02	5.78144172e-02	2.65300136e-01	1.23418289e+00	1.17763653e+00	2.65300136e-01	-2.65300136e-01	-7.07000460e-02	-1.86328880e-01
0.027           	2.38890059e+00	-1.63691434e-18	-2.59110390e-01	2.85021429e-02	4.67990495e-02	2.62779065e-01	1.22295244e+00	1.16594815e+00	2.62779065e-01	-2.62779065e-01	-8.27561456e-02	-1.76354244e-01
0.028           	2.36815814e+00	-1.57028761e-18	-2.60707454e-01	2.86778200e-02	3.57121448e-02	2.60497396e-01	1.21275689e+00	1.15540125e+00	2.60497396e-01	-2.60497396e-01	-9.46415824e-02	-1.66065872e-01
0.029           	2.34936633e+00	-1.50498865e-18	-2.61727358e-01	2.87900094e-02	2.45488300e-02	2.58430296e-01	1.20347317e+00	1.14589316e+00	2.58430296e-01	-2.58430296e-01	-1.06314849e-01	-1.55412509e-01
0.03            	2.33319701e+00	-1.44544144e-18	-2.63660358e-01	2.90026394e-02	1.33054713e-02	2.56651671e-01	1.19560114e+00	1.13759586e+00	2.56651671e-01	-2.56651671e-01	-1.18524708e-01	-1.45135651e-01
0.031           	2.31816503e+00	-1.38652181e-18	-2.64434184e-01	2.90877603e-02	1.97966473e-03	2.54998153e-01	1.18817028e+00	1.12999476e+00	2.54998153e-01	-2.54998153e-01	-1.30237427e-01	-1.34196757e-01
0.032           	2.30503822e+00	-1.33019977e-18	-2.64448035e-01	2.90892838e-02	-9.42998300e-03	2.53554204e-01	1.18160839e+00	1.12342983e+00	2.53554204e-01	-2.53554204e-01	-1.41654000e-01	-1.22794034e-01
0.033           	2.29308673e+00	-1.27670050e-18	-2.64309949e-01	2.90740944e-02	-2.09239972e-02	2.52239541e-01	1.17561746e+00	1.11746927e+00	2.52239541e-01	-2.52239541e-01	-1.53078972e-01	-1.11230977e-01
0.034           	2.28275953e+00	-1.22504200e-18	-2.64497045e-01	2.90946750e-02	-3.25022076e-02	2.51103548e-01	1.17047444e+00	1.11228509e+00	2.51103548e-01	-2.51103548e-01	-1.64750730e-01	-9.97463151e-02
0.035           	2.27338254e+00	-1.17546927e-18	-2.64299697e-01	2.90729667e-02	-4.41637760e-02	2.50072079e-01	1.16576423e+00	1.10761830e+00	2.50072079e-01	-2.50072079e-01	-1.76313625e-01	-8.79860727e-02
0.036           	2.26526196e+00	-1.12840044e-18	-2.63948633e-01	2.90343496e-02	-5.59072902e-02	2.49178816e-01	1.16166533e+00	1.10359663e+00	2.49178816e-01	-2.49178816e-01	-1.87881607e-01	-7.60670261e-02
0.037           	2.25800003e+00	-1.08374650e-18	-2.62511668e-01	2.88762834e-02	-6.77300826e-02	2.48380003e-01	1.15787630e+00	1.10012373e+00	2.48380003e-01	-2.48380003e-01	-1.98985916e-01	-6.35257512e-02
0.038           	2.25160864e+00	-1.03808815e-18	-2.61949576e-01	2.88144533e-02	-7.96319425e-02	2.47676951e-01	1.15461877e+00	1.09698987e+00	2.47676951e-01	-2.47676951e-01	-2.10606730e-01	-5.13428453e-02
0.039           	2.24630226e+00	-9.96272498e-19	-2.60355135e-01	2.86390649e-02	-9.16099039e-02	2.47093248e-01	1.15179019e+00	1.09451206e+00	2.47093248e-01	-2.47093248e-01	-2.21787472e-01	-3.85676638e-02
0.04            	2.24194132e+00	-9.56298229e-19	-2.58994856e-01	2.84894341e-02	-1.03660947e-01	2.46613545e-01	1.14946009e+00	1.09248122e+00	2.46613545e-01	-2.46613545e-01	-2.33158375e-01	-2.58364805e-02
0.041           	2.23833904e+00	-9.17798472e-19	-2.57193904e-01	2.82913295e-02	-1.15781837e-01	2.46217295e-01	1.14746085e+00	1.09087819e+00	2.46217295e-01	-2.46217295e-01	-2.44378789e-01	-1.28151149e-02
0.042           	2.23533697e+00	-8.80642352e-19	-2.55857917e-01	2.81443709e-02	-1.27969150e-01	2.45887067e-01	1.14581286e+00	1.08952411e+00	2.45887067e-01	-2.45887067e-01	-2.55898108e-01	4.01911504e-05
0.043           	2.23316518e+00	-8.44407049e-19	-2.53373374e-01	2.78710711e-02	-1.40219322e-01	2.45648170e-01	1.14445366e+00	1.08871152e+00	2.45648170e-01	-2.45648170e-01	-2.66906009e-01	1.35326353e-02
0.044           	2.23197721e+00	-8.10626885e-19	-2.50443179e-01	2.75487497e-02	-1.52528914e-01	2.45517493e-01	1.14353736e+00	1.08843986e+00	2.45517493e-01	-2.45517493e-01	-2.77750504e-01	2.73073246e-02
0.045           	2.23088000e+00	-7.78061276e-19	-2.47359002e-01	2.72094902e-02	-1.64893614e-01	2.45396800e-01	1.14264949e+00	1.08823051e+00	2.45396800e-01	-2.45396800e-01	-2.88573115e-01	4.12141132e-02
0.046           	2.23054109e+00	-7.47418422e-19	-2.44377846e-01	2.68815630e-02	-1.77309436e-01	2.45359520e-01	1.14215211e+00	1.08838898e+00	2.45359520e-01	-2.45359520e-01	-2.99498359e-01	5.51205129e-02
0.047           	2.23073045e+00	-7.17468275e-19	-2.40760140e-01	2.64836154e-02	-1.89772246e-01	2.45380350e-01	1.14184884e+00	1.08888161e+00	2.45380350e-01	-2.45380350e-01	-3.10152316e-01	6.93921762e-02
0.048           	2.23069332e+00	-6.90175719e-19	-2.37645511e-01	2.61410062e-02	-2.02277748e-01	2.45376265e-01	1.14148767e+00	1.08920565e+00	2.45376265e-01	-2.45376265e-01	-3.21100503e-01	8.34549924e-02
0.049           	2.23176486e+00	-6.64721401e-19	-2.33870590e-01	2.57257649e-02	-2.14821757e-01	2.45494134e-01	1.14160819e+00	1.09015666e+00	2.45494134e-01	-2.45494134e-01	-3.31757052e-01	9.78864620e-02
0.05            	2.23296532e+00	-6.39620230e-19	-2.29804326e-01	2.52784758e-02	-2.27399843e-01	2.45626185e-01	1.14176114e+00	1.09120418e+00	2.45626185e-01	-2.45626185e-01	-3.42302006e-01	1.12497680e-01
0.051           	2.23497965e+00	-6.15900701e-19	-2.25250925e-01	2.47776017e-02	-2.40007355e-01	2.45847762e-01	1.14226743e+00	1.09271222e+00	2.45847762e-01	-2.45847762e-01	-3.52632818e-01	1.27381893e-01
0.052           	2.23719570e+00	-5.92556735e-19	-2.20697729e-01	2.42767502e-02	-2.52639780e-01	2.46091527e-01	1.14287460e+00	1.09432110e+00	2.46091527e-01	-2.46091527e-01	-3.62988645e-01	1.42290916e-01
0.053           	2.23970845e+00	-5.70474274e-19	-2.15897976e-01	2.37487774e-02	-2.65292487e-01	2.46367930e-01	1.14360300e+00	1.09610545e+00	2.46367930e-01	-2.46367930e-01	-3.73241475e-01	1.57343499e-01
0.054           	2.24242076e+00	-5.50076647e-19	-2.10440304e-01	2.31484335e-02	-2.77960972e-01	2.46666284e-01	1.14435882e+00	1.09806195e+00	2.46666284e-01	-2.46666284e-01	-3.83181124e-01	1.72740820e-01
0.055           	2.24598331e+00	-5.30537043e-19	-2.05122179e-01	2.25634397e-02	-2.90640231e-01	2.47058164e-01	1.14555509e+00	1.10042821e+00	2.47058164e-01	-2.47058164e-01	-3.93201321e-01	1.88079141e-01
0.056           	2.24987057e+00	-5.11981186e-19	-1.99762760e-01	2.19739036e-02	-3.03325517e-01	2.47485762e-01	1.14690919e+00	1.10296138e+00	2.47485762e-01	-2.47485762e-01	-4.03206898e-01	2.03444137e-01
0.057           	2.25372905e+00	-4.94344841e-19	-1.93986610e-01	2.13385270e-02	-3.16012012e-01	2.47910195e-01	1.14820305e+00	1.10552600e+00	2.47910195e-01	-2.47910195e-01	-4.13005316e-01	2.19018707e-01
0.058           	2.25786805e+00	-4.77960760e-19	-1.88011880e-01	2.06813068e-02	-3.28694935e-01	2.48365485e-01	1.14961533e+00	1.10825272e+00	2.48365485e-01	-2.48365485e-01	-4.22700875e-01	2.34688995e-01
0.059           	2.26233421e+00	-4.62561062e-19	-1.81870310e-01	2.00057341e-02	-3.41369506e-01	2.48856763e-01	1.15117284e+00	1.11116137e+00	2.48856763e-01	-2.48856763e-01	-4.32304661e-01	2.50434351e-01
0.06            	2.26725767e+00	-4.47998823e-19	-1.75442518e-01	1.92986769e-02	-3.54030980e-01	2.49398343e-01	1.15292751e+00	1.11433016e+00	2.49398343e-01	-2.49398343e-01	-4.41752238e-01	2.66309721e-01
0.061           	2.27206438e+00	-4.33934741e-19	-1.68888843e-01	1.85777728e-02	-3.66675313e-01	2.49927081e-01	1.15460996e+00	1.11745442e+00	2.49927081e-01	-2.49927081e-01	-4.51119735e-01	2.82230891e-01
0.062           	2.27739116e+00	-4.22073496e-19	-1.61483399e-01	1.77631739e-02	-3.79296257e-01	2.50513027e-01	1.15645875e+00	1.12093240e+00	2.50513027e-01	-2.50513027e-01	-4.60037956e-01	2.98554557e-01
0.063           	2.28340155e+00	-4.10217651e-19	-1.53495569e-01	1.68845126e-02	-3.91888524e-01	2.51174171e-01	1.15858529e+00	1.12481626e+00	2.51174171e-01	-2.51174171e-01	-4.68636309e-01	3.15140740e-01
0.064           	2.28914693e+00	-3.98536811e-19	-1.45579254e-01	1.60137179e-02	-4.04447532e-01	2.51806162e-01	1.16058718e+00	1.12855975e+00	2.51806162e-01	-2.51806162e-01	-4.77237159e-01	3.31657905e-01
0.065           	2.29472459e+00	-3.89511052e-19	-1.38345102e-01	1.52179613e-02	-4.16968552e-01	2.52419704e-01	1.16258025e+00	1.13214433e+00	2.52419704e-01	-2.52419704e-01	-4.86141103e-01	3.47796000e-01
0.066           	2.30061719e+00	-3.79971954e-19	-1.30076965e-01	1.43084662e-02	-4.29446779e-01	2.53067891e-01	1.16461706e+00	1.13600013e+00	2.53067891e-01	-2.53067891e-01	-4.94485262e-01	3.64408296e-01
0.067           	2.30672754e+00	-3.72097921e-19	-1.21596377e-01	1.33756015e-02	-4.41877417e-01	2.53740029e-01	1.16673937e+00	1.13998817e+00	2.53740029e-01	-2.53740029e-01	-5.02675606e-01	3.81079229e-01
0.068           	2.31325745e+00	-3.64800932e-19	-1.12715735e-01	1.23987309e-02	-4.54255369e-01	2.54458319e-01	1.16902745e+00	1.14422999e+00	2.54458319e-01	-2.54458319e-01	-5.10613236e-01	3.97897501e-01
0.069           	2.32027453e+00	-3.57374051e-19	-1.04065846e-01	1.14472431e-02	-4.66576162e-01	2.55230199e-01	1.17158451e+00	1.14869002e+00	2.55230199e-01	-2.55230199e-01	-5.18609085e-01	4.14543239e-01
0.07            	2.32693235e+00	-3.51283789e-19	-9.48065268e-02	1.04287180e-02	-4.78834983e-01	2.55962558e-01	1.17389489e+00	1.15303746e+00	2.55962558e-01	-2.55962558e-01	-5.26238246e-01	4.31431720e-01
0.071           	2.33424979e+00	-3.41881385e-19	-8.49899289e-02	9.34889218e-03	-4.91027753e-01	2.56767477e-01	1.17647379e+00	1.15777600e+00	2.56767477e-01	-2.56767477e-01	-5.33522717e-01	4.48532788e-01
0.072           	2.34126174e+00	-3.43715743e-19	-7.46055818e-02	8.20661400e-03	-5.03147874e-01	2.57538792e-01	1.17883749e+00	1.16242426e+00	2.57538792e-01	-2.57538792e-01	-5.40450665e-01	4.65845083e-01
0.073           	2.34828915e+00	-3.39340250e-19	-6.44828490e-02	7.09311339e-03	-5.15190916e-01	2.58311806e-01	1.18123769e+00	1.16705146e+00	2.58311806e-01	-2.58311806e-01	-5.47432341e-01	4.82949492e-01
0.074           	2.35604210e+00	-3.36119676e-19	-5.48261741e-02	6.03087915e-03	-5.27152304e-01	2.59164631e-01	1.18405193e+00	1.17199017e+00	2.59164631e-01	-2.59164631e-01	-5.54565391e-01	4.99739217e-01
0.075           	2.36423625e+00	-3.31265152e-19	-4.47381415e-02	4.92119557e-03	-5.39027409e-01	2.60065988e-01	1.18703932e+00	1.17719693e+00	2.60065988e-01	-2.60065988e-01	-5.61396480e-01	5.16658339e-01
0.076           	2.37070883e+00	-3.31840063e-19	-3.35247158e-02	3.68771874e-03	-5.50811357e-01	2.60777971e-01	1.18904213e+00	1.18166670e+00	2.60777971e-01	-2.60777971e-01	-5.67573715e-01	5.34049000e-01
0.077           	2.37855808e+00	-3.31267358e-19	-2.24844202e-02	2.47328622e-03	-5.62499593e-01	2.61641389e-01	1.19175233e+00	1.18680575e+00	2.61641389e-01	-2.61641389e-01	-5.73741803e-01	5.51257383e-01
0.078           	2.38702026e+00	-3.29852648e-19	-1.12445010e-02	1.23689511e-03	-5.74087498e-01	2.62572229e-01	1.19474703e+00	1.19227324e+00	2.62572229e-01	-2.62572229e-01	-5.79709749e-01	5.68465248e-01
0.079           	2.39508601e+00	-3.29284921e-19	3.78151102e-04	-4.15966212e-05	-5.85570470e-01	2.63459461e-01	1.19750141e+00	1.19758460e+00	2.63459461e-01	-2.63459461e-01	-5.85381394e-01	5.85759545e-01
0.08            	2.40330999e+00	-3.28953011e-19	1.25182966e-02	-1.37701263e-03	-5.96943883e-01	2.64364099e-01	1.20027798e+00	1.20303201e+00	2.64364099e-01	-2.64364099e-01	-5.90684735e-01	6.03203032e-01
0.081           	2.41239243e+00	-3.30362495e-19	2.43850892e-02	-2.68235981e-03	-6.08203201e-01	2.65363167e-01	1.20351385e+00	1.20887857e+00	2.65363167e-01	-2.65363167e-01	-5.96010656e-01	6.20395745e-01
0.082           	2.42165807e+00	-3.32077389e-19	3.79698320e-02	-4.17668152e-03	-6.19343830e-01	2.66382387e-01	1.20665235e+00	1.21500571e+00	2.66382387e-01	-2.66382387e-01	-6.00358914e-01	6.38328746e-01
0.083           	2.43064888e+00	-3.33556484e-19	5.04299551e-02	-5.54729506e-03	-6.30361295e-01	2.67371376e-01	1.20977714e+00	1.22087173e+00	2.67371376e-01	-2.67371376e-01	-6.05146318e-01	6.55576273e-01
0.084           	2.44002459e+00	-3.35438942e-19	6.43424712e-02	-7.07767183e-03	-6.41251253e-01	2.68402705e-01	1.21293462e+00	1.22708997e+00	2.68402705e-01	-2.68402705e-01	-6.09080017e-01	6.73422489e-01
0.085           	2.44952483e+00	-3.37346660e-19	7.78462794e-02	-8.56309073e-03	-6.52009326e-01	2.69447732e-01	1.21619933e+00	1.23332551e+00	2.69447732e-01	-2.69447732e-01	-6.13086187e-01	6.90932466e-01
0.086           	2.45856235e+00	-3.39645321e-19	9.23641522e-02	-1.01600567e-02	-6.62631182e-01	2.70441859e-01	1.21912112e+00	1.23944123e+00	2.70441859e-01	-2.70441859e-01	-6.16449106e-01	7.08813258e-01
0.087           	2.46808052e+00	-3.42469856e-19	1.06026601e-01	-1.16629262e-02	-6.73112624e-01	2.71488858e-01	1.22237734e+00	1.24570319e+00	2.71488858e-01	-2.71488858e-01	-6.20099323e-01	7.26125925e-01
0.088           	2.47880899e+00	-3.46252795e-19	1.20732535e-01	-1.32805789e-02	-6.83449268e-01	2.72668989e-01	1.22612392e+00	1.25268507e+00	2.72668989e-01	-2.72668989e-01	-6.23083000e-01	7.43815535e-01
0.089           	2.48871597e+00	-3.48108648e-19	1.35477334e-01	-1.49025067e-02	-6.93636861e-01	2.73758757e-01	1.22945548e+00	1.25926049e+00	2.73758757e-01	-2.73758757e-01	-6.25898194e-01	7.61375528e-01
0.09            	2.49845935e+00	-3.50227212e-19	1.50647855e-01	-1.65712641e-02	-7.03671234e-01	2.74830529e-01	1.23265841e+00	1.26580094e+00	2.74830529e-01	-2.74830529e-01	-6.28347306e-01	7.78995161e-01
0.091           	2.50829968e+00	-3.54118450e-19	1.65979919e-01	-1.82577911e-02	-7.13548339e-01	2.75912965e-01	1.23589205e+00	1.27240763e+00	2.75912965e-01	-2.75912965e-01	-6.30558380e-01	7.96538298e-01
0.092           	2.51863660e+00	-3.58032606e-19	1.81244984e-01	-1.99369483e-02	-7.23264184e-01	2.77050026e-01	1.23938135e+00	1.27925525e+00	2.77050026e-01	-2.77050026e-01	-6.32641692e-01	8.13886676e-01
0.093           	2.52846788e+00	-3.61176431e-19	1.97497207e-01	-2.17246927e-02	-7.32814651e-01	2.78131466e-01	1.24250925e+00	1.28595863e+00	2.78131466e-01	-2.78131466e-01	-6.34066048e-01	8.31563255e-01
0.094           	2.53878546e+00	-3.64059156e-19	2.13662012e-01	-2.35028213e-02	-7.42196014e-01	2.79266401e-01	1.24588991e+00	1.29289555e+00	2.79266401e-01	-2.79266401e-01	-6.35365009e-01	8.49027020e-01
0.095           	2.54981373e+00	-3.68068819e-19	2.31474561e-01	-2.54622017e-02	-7.51404420e-01	2.80479510e-01	1.24944466e+00	1.30036906e+00	2.80479510e-01	-2.80479510e-01	-6.35667139e-01	8.67141700e-01
0.096           	2.56035752e+00	-3.72038399e-19	2.49072078e-01	-2.73979286e-02	-7.60436102e-01	2.81639327e-01	1.25278083e+00	1.30757669e+00	2.81639327e-01	-2.81639327e-01	-6.35900063e-01	8.84972141e-01
0.097           	2.57230042e+00	-3.76588920e-19	2.67292429e-01	-2.94021672e-02	-7.69287426e-01	2.82953046e-01	1.25674804e+00	1.31555237e+00	2.82953046e-01	-2.82953046e-01	-6.35641212e-01	9.02933641e-01
0.098           	2.58360795e+00	-3.79451627e-19	2.84910234e-01	-3.13401258e-02	-7.77954883e-01	2.84196875e-01	1.26046385e+00	1.32314410e+00	2.84196875e-01	-2.84196875e-01	-6.35499766e-01	9.20410000e-01
0.099           	2.59465438e+00	-3.83425910e-19	3.02514262e-01	-3.32765688e-02	-7.86435237e-01	2.85411981e-01	1.26405062e+00	1.33060376e+00	2.85411981e-01	-2.85411981e-01	-6.35178106e-01	9.37692368e-01
0.1             	2.60602792e+00	-3.88364796e-19	3.22604789e-01	-3.54865268e-02	-7.94724508e-01	2.86663071e-01	1.26752743e+00	1.33850048e+00	2.86663071e-01	-2.86663071e-01	-6.33422113e-01	9.56026902e-01
0.101           	2.61790769e+00	-3.91187763e-19	3.41655503e-01	-3.75821053e-02	-8.02819120e-01	2.87969846e-01	1.27137174e+00	1.34653595e+00	2.87969846e-01	-2.87969846e-01	-6.31991369e-01	9.73646871e-01
0.102           	2.62956142e+00	-3.93294574e-19	3.61037211e-01	-3.97140932e-02	-8.10715795e-01	2.89251756e-01	1.27506661e+00	1.35449480e+00	2.89251756e-01	-2.89251756e-01	-6.30197190e-01	9.91234401e-01
0.103           	2.64250281e+00	-3.96454698e-19	3.80710881e-01	-4.18781969e-02	-8.18411056e-01	2.90675309e-01	1.27937321e+00	1.36312960e+00	2.90675309e-01	-2.90675309e-01	-6.28055615e-01	1.00876650e+00
0.104           	2.65473504e+00	-3.98089552e-19	4.01225898e-01	-4.41348488e-02	-8.25901722e-01	2.92020855e-01	1.28323267e+00	1.37150237e+00	2.92020855e-01	-2.92020855e-01	-6.25288773e-01	1.02651467e+00
0.105           	2.66738806e+00	-3.99814428e-19	4.21997387e-01	-4.64197125e-02	-8.33184716e-01	2.93412687e-01	1.28727432e+00	1.38011374e+00	2.93412687e-01	-2.93412687e-01	-6.22186023e-01	1.04418341e+00
0.106           	2.68005079e+00	-4.02159663e-19	4.42859485e-01	-4.87145433e-02	-8.40257068e-01	2.94805587e-01	1.29131085e+00	1.38873994e+00	2.94805587e-01	-2.94805587e-01	-6.18827325e-01	1.06168681e+00
0.107           	2.69284863e+00	-4.03787968e-19	4.63934741e-01	-5.10328215e-02	-8.47115817e-01	2.96213350e-01	1.29539150e+00	1.39745714e+00	2.96213350e-01	-2.96213350e-01	-6.15148446e-01	1.07908319e+00
0.108           	2.70655563e+00	-4.03175335e-19	4.86393560e-01	-5.35032916e-02	-8.53758039e-01	2.97721119e-01	1.29977452e+00	1.40678111e+00	2.97721119e-01	-2.97721119e-01	-6.10561259e-01	1.09695482e+00
0.109           	2.71921323e+00	-4.05481748e-19	5.09232076e-01	-5.60155284e-02	-8.60181066e-01	2.99113455e-01	1.30359109e+00	1.41562214e+00	2.99113455e-01	-2.99113455e-01	-6.05565028e-01	1.11479710e+00
0.11            	2.73266440e+00	-4.06409557e-19	5.31861077e-01	-5.85047185e-02	-8.66382161e-01	3.00593084e-01	1.30782748e+00	1.42483692e+00	3.00593084e-01	-3.00593084e-01	-6.00451622e-01	1.13231270e+00
0.111           	2.74553508e+00	-4.04894450e-19	5.54479336e-01	-6.09927269e-02	-8.72358671e-01	3.02008859e-01	1.31177482e+00	1.43376027e+00	3.02008859e-01	-3.02008859e-01	-5.95119003e-01	1.14959834e+00
0.112           	2.76033588e+00	-4.04661858e-19	5.78382955e-01	-6.36221250e-02	-8.78108016e-01	3.03636947e-01	1.31654582e+00	1.44379007e+00	3.03636947e-01	-3.03636947e-01	-5.88916538e-01	1.16729949e+00
0.113           	2.77486684e+00	-4.04193362e-19	6.02724796e-01	-6.62997276e-02	-8.83627899e-01	3.05235353e-01	1.32113369e+00	1.45373315e+00	3.05235353e-01	-3.05235353e-01	-5.82265501e-01	1.18499030e+00
0.114           	2.79017357e+00	-4.02754009e-19	6.26649756e-01	-6.89314732e-02	-8.88916051e-01	3.06919093e-01	1.32615531e+00	1.46401826e+00	3.06919093e-01	-3.06919093e-01	-5.75591173e-01	1.20224093e+00
0.115           	2.80381003e+00	-4.00356816e-19	6.51816724e-01	-7.16998396e-02	-8.93970223e-01	3.08419104e-01	1.33020518e+00	1.47360486e+00	3.08419104e-01	-3.08419104e-01	-5.68061861e-01	1.21987859e+00
0.116           	2.81844877e+00	-3.97809456e-19	6.77594093e-01	-7.45353503e-02	-8.98788194e-01	3.10029365e-01	1.33468903e+00	1.48375973e+00	3.10029365e-01	-3.10029365e-01	-5.59991147e-01	1.23758524e+00
0.117           	2.83356105e+00	-3.93768132e-19	7.03437708e-01	-7.73781479e-02	-9.03368055e-01	3.11691715e-01	1.33940237e+00	1.49415867e+00	3.11691715e-01	-3.11691715e-01	-5.51649201e-01	1.25508691e+00
0.118           	2.84872765e+00	-3.89578927e-19	7.29674643e-01	-8.02642107e-02	-9.07707982e-01	3.13360041e-01	1.34409961e+00	1.50462803e+00	3.13360041e-01	-3.13360041e-01	-5.42870660e-01	1.27254530e+00
0.119           	2.86435372e+00	-3.84079798e-19	7.56406872e-01	-8.32047559e-02	-9.11806058e-01	3.15078909e-01	1.34897210e+00	1.51538162e+00	3.15078909e-01	-3.15078909e-01	-5.33602622e-01	1.29000949e+00
0.12            	2.87987086e+00	-3.79748644e-19	7.83514856e-01	-8.61866341e-02	-9.15660477e-01	3.16785794e-01	1.35374880e+00	1.52612206e+00	3.16785794e-01	-3.16785794e-01	-5.23903049e-01	1.30741791e+00
0.121           	2.89542955e+00	-3.72782092e-19	8.11246659e-01	-8.92371325e-02	-9.19269521e-01	3.18497250e-01	1.35847764e+00	1.53695191e+00	3.18497250e-01	-3.18497250e-01	-5.13646192e-01	1.32489285e+00
0.122           	2.91155500e+00	-3.65377773e-19	8.39136832e-01	-9.23050515e-02	-9.22631537e-01	3.20271050e-01	1.36347245e+00	1.54808255e+00	3.20271050e-01	-3.20271050e-01	-5.03063121e-01	1.34219995e+00
0.123           	2.92809861e+00	-3.56566343e-19	8.67677581e-01	-9.54445339e-02	-9.25744946e-01	3.22090847e-01	1.36860477e+00	1.55949384e+00	3.22090847e-01	-3.22090847e-01	-4.91906156e-01	1.35958374e+00
0.124           	2.94503145e+00	-3.48824526e-19	8.96964517e-01	-9.86660969e-02	-9.28608357e-01	3.23953460e-01	1.37384963e+00	1.57118182e+00	3.23953460e-01	-3.23953460e-01	-4.80126099e-01	1.37709062e+00
0.125           	2.96129209e+00	-3.38766290e-19	9.26407921e-01	-1.01904871e-01	-9.31220594e-01	3.25742130e-01	1.37874117e+00	1.58255092e+00	3.25742130e-01	-3.25742130e-01	-4.68016634e-01	1.39442455e+00
0.126           	2.97857987e+00	-3.27846901e-19	9.56089873e-01	-1.05169886e-01	-9.33580514e-01	3.27643786e-01	1.38412005e+00	1.59445982e+00	3.27643786e-01	-3.27643786e-01	-4.55535578e-01	1.41162545e+00
0.127           	2.99646890e+00	-3.16197135e-19	9.85814656e-01	-1.08439612e-01	-9.35687157e-01	3.29611579e-01	1.38979484e+00	1.60667406e+00	3.29611579e-01	-3.29611579e-01	-4.42779829e-01	1.42859449e+00
0.128           	3.01441689e+00	-3.02371461e-19	1.01569853e+00	-1.11726838e-01	-9.37539538e-01	3.31585858e-01	1.39548161e+00	1.61893529e+00	3.31585858e-01	-3.31585858e-01	-4.29690273e-01	1.44538880e+00
0.129           	3.03285378e+00	-2.87756483e-19	1.04661000e+00	-1.15127100e-01	-9.39136742e-01	3.33613916e-01	1.40129979e+00	1.63155399e+00	3.33613916e-01	-3.33613916e-01	-4.15831742e-01	1.46244174e+00
0.13            	3.05023196e+00	-2.78864678e-19	1.07924210e+00	-1.18716631e-01	-9.40477699e-01	3.35525515e-01	1.40639935e+00	1.64383261e+00	3.35525515e-01	-3.35525515e-01	-4.00856649e-01	1.48009875e+00
0.131           	3.06916940e+00	-2.62363179e-19	1.11122817e+00	-1.22235099e-01	-9.41561569e-01	3.37608634e-01	1.41234960e+00	1.65681980e+00	3.37608634e-01	-3.37608634e-01	-3.85947485e-01	1.49717565e+00
0.132           	3.08874107e+00	-2.44192332e-19	1.14314982e+00	-1.25746480e-01	-9.42387574e-01	3.39761518e-01	1.41862406e+00	1.67011702e+00	3.39761518e-01	-3.39761518e-01	-3.70812665e-01	1.51396248e+00
0.133           	3.10760140e+00	-2.24991188e-19	1.17634610e+00	-1.29398071e-01	-9.42955032e-01	3.41836154e-01	1.42440263e+00	1.68319877e+00	3.41836154e-01	-3.41836154e-01	-3.54781984e-01	1.53112808e+00
0.134           	3.12427359e+00	-2.11539579e-19	1.21087425e+00	-1.33196167e-01	-9.43263317e-01	3.43670095e-01	1.42894063e+00	1.69533296e+00	3.43670095e-01	-3.43670095e-01	-3.37826194e-01	1.54870044e+00
0.135           	3.14473215e+00	-1.93499016e-19	1.24487140e+00	-1.36935854e-01	-9.43312762e-01	3.45920537e-01	1.43543022e+00	1.70930193e+00	3.45920537e-01	-3.45920537e-01	-3.20877060e-01	1.56574846e+00
0.136           	3.16442324e+00	-1.74321135e-19	1.27897408e+00	-1.40687149e-01	-9.43103084e-01	3.48086557e-01	1.44152447e+00	1.72289877e+00	3.48086557e-01	-3.48086557e-01	-3.03616044e-01	1.58259012e+00
0.137           	3.18497985e+00	-1.54845238e-19	1.31283270e+00	-1.44411597e-01	-9.42634131e-01	3.50347783e-01	1.44807833e+00	1.73690152e+00	3.50347783e-01	-3.50347783e-01	-2.86217781e-01	1.59905048e+00
0.138           	3.20533864e+00	-1.32369569e-19	1.34849683e+00	-1.48334652e-01	-9.41905958e-01	3.52587250e-01	1.45433467e+00	1.75100397e+00	3.52587250e-01	-3.52587250e-01	-2.67657541e-01	1.61615437e+00
0.139           	3.22539853e+00	-1.09299261e-19	1.38393795e+00	-1.52233174e-01	-9.40918559e-01	3.54793838e-01	1.46046609e+00	1.76493244e+00	3.54793838e-01	-3.54793838e-01	-2.48949585e-01	1.63288753e+00
0.14            	3.24556245e+00	-8.46629284e-20	1.42060539e+00	-1.56266593e-01	-9.39672229e-01	3.57011869e-01	1.46651463e+00	1.77904782e+00	3.57011869e-01	-3.57011869e-01	-2.29369531e-01	1.64997493e+00
0.141           	3.26665058e+00	-6.12915174e-20	1.45708455e+00	-1.60279301e-01	-9.38167286e-01	3.59331563e-01	1.47304599e+00	1.79360459e+00	3.59331563e-01	-3.59331563e-01	-2.09625009e-01	1.66670956e+00
0.142           	3.28801542e+00	-3.66561950e-20	1.49390285e+00	-1.64329314e-01	-9.36404220e-01	3.61681696e-01	1.47967840e+00	1.80833702e+00	3.61681696e-01	-3.61681696e-01	-1.89452794e-01	1.68335565e+00
0.143           	3.30906788e+00	-1.00451503e-20	1.53048154e+00	-1.68352969e-01	-9.34383203e-01	3.63997467e-01	1.48618097e+00	1.82288691e+00	3.63997467e-01	-3.63997467e-01	-1.69142432e-01	1.69962397e+00