# Force coefficients
# dragDir       : (1.00000000e+00 0.00000000e+00 0.00000000e+00)
# sideDir       : (0.00000000e+00 0.00000000e+00 -1.00000000e+00)
# liftDir       : (0.00000000e+00 1.00000000e+00 0.00000000e+00)
# rollAxis      : (1.00000000e+00 0.00000000e+00 0.00000000e+00)
# pitchAxis     : (0.00000000e+00 0.00000000e+00 -1.00000000e+00)
# yawAxis       : (0.00000000e+00 1.00000000e+00 0.00000000e+00)
# magUInf       : 1.00000000e+00
# lRef          : 1.00000000e-01
# Aref          : 1.00000000e-03
# CofR          : (2.00000000e-01 2.00000000e-01 5.00000000e-03)
#
# Time          	Cd              	Cs              	Cl              	CmRoll          	CmPitch         	CmYaw           	Cd(f)           	Cd(r)           	Cs(f)           	Cs(r)           	Cl(f)           	Cl(r)           
0.0005          	6.89122895e+02	-1.70154536e-14	-1.09060848e+00	1.19966933e-01	9.49806344e-04	7.58035184e+01	3.44681414e+02	3.44441480e+02	7.58035184e+01	-7.58035184e+01	-5.44354433e-01	-5.46254046e-01
0.001           	9.94896045e+00	-7.16322193e-18	-4.01386602e-03	4.41525262e-04	6.32739122e-04	1.09438565e+00	4.97492175e+00	4.97403870e+00	1.09438565e+00	-1.09438565e+00	-1.37419389e-03	-2.63967213e-03
0.0015          	8.93003508e+00	-6.38535437e-18	-3.50909910e-02	3.86000901e-03	4.09749783e-04	9.82303859e-01	4.46887755e+00	4.46115753e+00	9.82303859e-01	-9.82303859e-01	-1.71357457e-02	-1.79552453e-02
0.002           	7.98124408e+00	-6.05539072e-18	-2.17304877e-02	2.39035364e-03	2.54755112e-04	8.77936849e-01	3.99301240e+00	3.98823169e+00	8.77936849e-01	-8.77936849e-01	-1.06104887e-02	-1.11199989e-02
0.0025          	7.25907626e+00	-5.78386752e-18	-1.37015596e-02	1.50717156e-03	1.48488244e-04	7.98498389e-01	3.63104530e+00	3.62803096e+00	7.98498389e-01	-7.98498389e-01	-6.70229157e-03	-6.99926806e-03
0.003           	6.66264068e+00	-5.53757100e-18	-1.09531563e-02	1.20484720e-03	7.69997504e-05	7.32890475e-01	3.33252519e+00	3.33011549e+00	7.32890475e-01	-7.32890475e-01	-5.39957842e-03	-5.55357792e-03
0.0035          	6.16271280e+00	-5.31567343e-18	-9.31685314e-03	1.02485385e-03	3.01142882e-05	6.77898408e-01	3.08238126e+00	3.08033155e+00	6.77898408e-01	-6.77898408e-01	-4.62831228e-03	-4.68854086e-03
0.004           	5.74215877e+00	-5.11295517e-18	-8.31219662e-03	9.14341629e-04	5.25988913e-07	6.31637465e-01	2.87199373e+00	2.87016504e+00	6.31637465e-01	-6.31637465e-01	-4.15557232e-03	-4.15662430e-03
0.0045          	5.38318609e+00	-4.92608832e-18	-8.03749290e-03	8.84124219e-04	-1.71011970e-05	5.92150470e-01	2.69247717e+00	2.69070892e+00	5.92150470e-01	-5.92150470e-01	-4.03584765e-03	-4.00164525e-03
0.005           	5.07508155e+00	-4.75299892e-18	-7.40794979e-03	8.14874477e-04	-2.65281573e-05	5.58258971e-01	2.53835565e+00	2.53672590e+00	5.58258971e-01	-5.58258971e-01	-3.73050305e-03	-3.67744674e-03
0.0055          	4.80948331e+00	-4.59393514e-18	-6.37356197e-03	7.01091817e-04	-3.04932203e-05	5.29043164e-01	2.40544275e+00	2.40404056e+00	5.29043164e-01	-5.29043164e-01	-3.21727421e-03	-3.15628777e-03
0.006           	4.57917456e+00	-4.44660195e-18	-5.84418770e-03	6.42860647e-04	-3.08969958e-05	5.03709201e-01	2.29023014e+00	2.28894442e+00	5.03709201e-01	-5.03709201e-01	-2.95299085e-03	-2.89119686e-03
0.0065          	4.37768164e+00	-4.30903201e-18	-5.43213946e-03	5.97535340e-04	-2.90429053e-05	4.81544980e-01	2.18943835e+00	2.18824328e+00	4.81544980e-01	-4.81544980e-01	-2.74511263e-03	-2.68702682e-03
0.007           	4.20099280e+00	-4.18046633e-18	-4.94722885e-03	5.44195173e-04	-2.58457500e-05	4.62109208e-01	2.10104059e+00	2.09995220e+00	4.62109208e-01	-4.62109208e-01	-2.49946017e-03	-2.44776867e-03
0.0075          	4.04367933e+00	-4.05707172e-18	-5.13731038e-03	5.65104142e-04	-2.19376481e-05	4.44804726e-01	2.02240477e+00	2.02127456e+00	4.44804726e-01	-4.44804726e-01	-2.59059284e-03	-2.54671754e-03
0.008           	3.90441415e+00	-3.94175275e-18	-4.99586030e-03	5.49544633e-04	-1.77833289e-05	4.29485557e-01	1.95275662e+00	1.95165753e+00	4.29485557e-01	-4.29485557e-01	-2.51571348e-03	-2.48014682e-03
0.0085          	3.78014448e+00	-3.83295123e-18	-4.88685160e-03	5.37553676e-04	-1.36421037e-05	4.15815893e-01	1.89060979e+00	1.88953469e+00	4.15815893e-01	-4.15815893e-01	-2.45706790e-03	-2.42978370e-03
0.009           	3.66853714e+00	-3.73048664e-18	-4.59862284e-03	5.05848513e-04	-9.68657411e-06	4.03539085e-01	1.83477442e+00	1.83376272e+00	4.03539085e-01	-4.03539085e-01	-2.30899800e-03	-2.28962485e-03
0.0095          	3.56775073e+00	-3.63289444e-18	-4.28785413e-03	4.71663954e-04	-6.08009514e-06	3.92452580e-01	1.78434703e+00	1.78340370e+00	3.92452580e-01	-3.92452580e-01	-2.15000716e-03	-2.13784697e-03
0.01            	3.47627559e+00	-3.53919108e-18	-3.91324406e-03	4.30456847e-04	-2.93683061e-06	3.82390315e-01	1.73856825e+00	1.73770734e+00	3.82390315e-01	-3.82390315e-01	-1.95955886e-03	-1.95368520e-03
0.0105          	3.39303395e+00	-3.45020602e-18	-3.61829937e-03	3.98012930e-04	-2.13939040e-07	3.73233735e-01	1.69691499e+00	1.69611896e+00	3.73233735e-01	-3.73233735e-01	-1.80936362e-03	-1.80893575e-03
0.011           	3.31682729e+00	-3.36528763e-18	-3.87427599e-03	4.26170359e-04	2.07438536e-06	3.64851002e-01	1.65883982e+00	1.65798748e+00	3.64851002e-01	-3.64851002e-01	-1.93506361e-03	-1.93921238e-03
0.0115          	3.24713191e+00	-3.28477533e-18	-3.40780200e-03	3.74858220e-04	3.99745871e-06	3.57184511e-01	1.62394082e+00	1.62319110e+00	3.57184511e-01	-3.57184511e-01	-1.69990354e-03	-1.70789846e-03
0.012           	3.18275884e+00	-3.20704374e-18	-3.13583882e-03	3.44942270e-04	5.55260382e-06	3.50103472e-01	1.59172436e+00	1.59103448e+00	3.50103472e-01	-3.50103472e-01	-1.56236680e-03	-1.57347201e-03
0.0125          	3.12301105e+00	-3.13198942e-18	-3.31704676e-03	3.64875143e-04	6.77183871e-06	3.43531215e-01	1.56187040e+00	1.56114065e+00	3.43531215e-01	-3.43531215e-01	-1.65175154e-03	-1.66529522e-03
0.013           	3.06853038e+00	-3.05894406e-18	-2.69100763e-03	2.96010839e-04	7.72040378e-06	3.37538341e-01	1.53456120e+00	1.53396918e+00	3.37538341e-01	-3.37538341e-01	-1.33778341e-03	-1.35322422e-03
0.0135          	3.01817276e+00	-2.98807628e-18	-2.18237738e-03	2.40061512e-04	8.40075174e-06	3.31999004e-01	1.50932644e+00	1.50884632e+00	3.31999004e-01	-3.31999004e-01	-1.08278794e-03	-1.09958944e-03
0.014           	2.97070103e+00	-2.92068788e-18	-2.04440591e-03	2.24884650e-04	8.83672964e-06	3.26777113e-01	1.48557540e+00	1.48512563e+00	3.26777113e-01	-3.26777113e-01	-1.01336622e-03	-1.03103968e-03
0.0145          	2.92624872e+00	-2.85565580e-18	-2.05398530e-03	2.25938383e-04	9.06782350e-06	3.21887359e-01	1.46335030e+00	1.46289842e+00	3.21887359e-01	-3.21887359e-01	-1.01792483e-03	-1.03606048e-03
0.015           	2.88467610e+00	-2.79282928e-18	-1.65545932e-03	1.82100526e-04	9.10497187e-06	3.17314370e-01	1.44252015e+00	1.44215595e+00	3.17314370e-01	-3.17314370e-01	-8.18624690e-04	-8.36834633e-04
0.0155          	2.84585639e+00	-2.73204213e-18	-1.89343874e-03	2.08278262e-04	8.96587606e-06	3.13044202e-01	1.42313647e+00	1.42271991e+00	3.13044202e-01	-3.13044202e-01	-9.37753495e-04	-9.55685247e-04
0.016           	2.80942264e+00	-2.67254141e-18	-2.33328476e-03	2.56661324e-04	8.65311544e-06	3.09036491e-01	1.40496798e+00	1.40445466e+00	3.09036491e-01	-3.09036491e-01	-1.15798926e-03	-1.17529550e-03
0.0165          	2.77510918e+00	-2.61509673e-18	-2.46232427e-03	2.70855670e-04	8.20200118e-06	3.05262010e-01	1.38782545e+00	1.38728374e+00	3.05262010e-01	-3.05262010e-01	-1.22296014e-03	-1.23936414e-03
0.017           	2.74303471e+00	-2.55972713e-18	-1.68459216e-03	1.85305138e-04	7.62323067e-06	3.01733818e-01	1.37170266e+00	1.37133205e+00	3.01733818e-01	-3.01733818e-01	-8.34672850e-04	-8.49919312e-04
0.0175          	2.71283210e+00	-2.50627615e-18	-8.95757560e-04	9.85333316e-05	6.91544089e-06	2.98411531e-01	1.35651458e+00	1.35631752e+00	2.98411531e-01	-2.98411531e-01	-4.40963339e-04	-4.54794221e-04
0.018           	2.68447771e+00	-2.45369328e-18	-9.02213187e-04	9.92434505e-05	6.05651748e-06	2.95292548e-01	1.34233810e+00	1.34213961e+00	2.95292548e-01	-2.95292548e-01	-4.45050076e-04	-4.57163111e-04
0.0185          	2.65777450e+00	-2.40282850e-18	-2.95130432e-04	3.24643475e-05	5.05547962e-06	2.92355195e-01	1.32891972e+00	1.32885479e+00	2.92355195e-01	-2.92355195e-01	-1.42509736e-04	-1.52620696e-04
0.019           	2.63221594e+00	-2.35304529e-18	-2.15028126e-04	2.36530939e-05	3.91303126e-06	2.89543754e-01	1.31613162e+00	1.31608432e+00	2.89543754e-01	-2.89543754e-01	-1.03601032e-04	-1.11427094e-04
0.0195          	2.60822216e+00	-2.30428170e-18	-4.14613670e-04	4.56075037e-05	2.62250344e-06	2.86904438e-01	1.30415669e+00	1.30406547e+00	2.86904438e-01	-2.86904438e-01	-2.04684331e-04	-2.09929338e-04
0.02            	2.58551304e+00	-2.25677110e-18	-6.09744761e-04	6.70719237e-05	1.19819343e-06	2.84406434e-01	1.29282359e+00	1.29268945e+00	2.84406434e-01	-2.84406434e-01	-3.03674187e-04	-3.06070574e-04
0.0205          	2.56416259e+00	-2.21032630e-18	-9.24448182e-04	1.01689300e-04	-3.55458327e-07	2.82057884e-01	1.28218298e+00	1.28197960e+00	2.82057884e-01	-2.82057884e-01	-4.62579549e-04	-4.61868633e-04
0.021           	2.54389085e+00	-2.16499444e-18	-1.15945450e-03	1.27539995e-04	-2.03661835e-06	2.79827994e-01	1.27207297e+00	1.27181789e+00	2.79827994e-01	-2.79827994e-01	-5.81763866e-04	-5.77690630e-04
0.0215          	2.52459298e+00	-2.12080211e-18	-1.17958190e-03	1.29754009e-04	-3.83346218e-06	2.77705228e-01	1.26242624e+00	1.26216674e+00	2.77705228e-01	-2.77705228e-01	-5.93624413e-04	-5.85957489e-04
0.022           	2.50629155e+00	-2.07791317e-18	-9.86666975e-04	1.08533367e-04	-5.73872781e-06	2.75692071e-01	1.25325431e+00	1.25303724e+00	2.75692071e-01	-2.75692071e-01	-4.99072215e-04	-4.87594760e-04
0.0225          	2.48895306e+00	-2.03587092e-18	-9.62632599e-04	1.05889586e-04	-7.75547467e-06	2.73784837e-01	1.24458242e+00	1.24437064e+00	2.73784837e-01	-2.73784837e-01	-4.89071774e-04	-4.73560825e-04
0.023           	2.47249406e+00	-1.99481943e-18	-9.46364765e-04	1.04100124e-04	-9.88298980e-06	2.71974346e-01	1.23635113e+00	1.23614293e+00	2.71974346e-01	-2.71974346e-01	-4.83065372e-04	-4.63299393e-04
0.0235          	2.45692343e+00	-1.95468687e-18	-8.98024849e-04	9.87827334e-05	-1.21197609e-05	2.70261577e-01	1.22856050e+00	1.22836293e+00	2.70261577e-01	-2.70261577e-01	-4.61132185e-04	-4.36892664e-04
0.024           	2.44209516e+00	-1.91527720e-18	-9.87305140e-04	1.08603565e-04	-1.44624969e-05	2.68630467e-01	1.22115618e+00	1.22093897e+00	2.68630467e-01	-2.68630467e-01	-5.08115067e-04	-4.79190073e-04
0.0245          	2.42803646e+00	-1.87678598e-18	-1.03081269e-03	1.13389396e-04	-1.69080393e-05	2.67084011e-01	1.21413162e+00	1.21390484e+00	2.67084011e-01	-2.67084011e-01	-5.32314383e-04	-4.98498305e-04
0.025           	2.41459109e+00	-1.83915062e-18	-1.03428434e-03	1.13771277e-04	-1.94537437e-05	2.65605020e-01	1.20740932e+00	1.20718177e+00	2.65605020e-01	-2.65605020e-01	-5.36595914e-04	-4.97688426e-04
0.0255          	2.40204330e+00	-1.80200074e-18	-1.45015881e-03	1.59517469e-04	-2.20930468e-05	2.64224763e-01	1.20118117e+00	1.20086213e+00	2.64224763e-01	-2.64224763e-01	-7.47172451e-04	-7.02986357e-04
0.026           	2.39013948e+00	-1.76599124e-18	-1.30466913e-03	1.43513605e-04	-2.48247819e-05	2.62915343e-01	1.19521325e+00	1.19492623e+00	2.62915343e-01	-2.62915343e-01	-6.77159348e-04	-6.27509784e-04
0.0265          	2.37876126e+00	-1.73081759e-18	-5.89084723e-04	6.47993195e-05	-2.76451344e-05	2.61663739e-01	1.18944543e+00	1.18931583e+00	2.61663739e-01	-2.61663739e-01	-3.22187496e-04	-2.66897227e-04
0.027           	2.36801673e+00	-1.69608064e-18	-8.42459879e-04	9.26705866e-05	-3.05609213e-05	2.60481840e-01	1.18410103e+00	1.18391569e+00	2.60481840e-01	-2.60481840e-01	-4.51790861e-04	-3.90669018e-04
0.0275          	2.35792810e+00	-1.66184607e-18	-7.48502543e-04	8.23352797e-05	-3.35552559e-05	2.59372091e-01	1.17904638e+00	1.17888171e+00	2.59372091e-01	-2.59372091e-01	-4.07806527e-04	-3.40696015e-04
0.028           	2.34831342e+00	-1.62854620e-18	-9.93935633e-04	1.09332920e-04	-3.66279890e-05	2.58314476e-01	1.17426604e+00	1.17404738e+00	2.58314476e-01	-2.58314476e-01	-5.33595806e-04	-4.60339828e-04
0.0285          	2.33898641e+00	-1.59499054e-18	-1.11223189e-03	1.22345508e-04	-3.97456563e-05	2.57288505e-01	1.16961555e+00	1.16937086e+00	2.57288505e-01	-2.57288505e-01	-5.95861601e-04	-5.16370288e-04
0.029           	2.33033647e+00	-1.56324813e-18	-1.34245734e-03	1.47670308e-04	-4.29755545e-05	2.56337011e-01	1.16531590e+00	1.16502056e+00	2.56337011e-01	-2.56337011e-01	-7.14204226e-04	-6.28253117e-04
0.0295          	2.32209503e+00	-1.53234437e-18	-1.28977641e-03	1.41875405e-04	-4.62478880e-05	2.55430453e-01	1.16118939e+00	1.16090564e+00	2.55430453e-01	-2.55430453e-01	-6.91136093e-04	-5.98640318e-04
0.03            	2.31438544e+00	-1.50128779e-18	-1.58001532e-03	1.73801685e-04	-4.95823547e-05	2.54582399e-01	1.15736652e+00	1.15701892e+00	2.54582399e-01	-2.54582399e-01	-8.39590014e-04	-7.40425305e-04
0.0305          	2.30696477e+00	-1.47082859e-18	-2.02405232e-03	2.22645755e-04	-5.29886780e-05	2.53766125e-01	1.15370503e+00	1.15325974e+00	2.53766125e-01	-2.53766125e-01	-1.06501484e-03	-9.59037483e-04
0.031           	2.30011341e+00	-1.44072452e-18	-1.87675765e-03	2.06443342e-04	-5.64366136e-05	2.53012475e-01	1.15026315e+00	1.14985026e+00	2.53012475e-01	-2.53012475e-01	-9.94815441e-04	-8.81942214e-04
0.0315          	2.29348634e+00	-1.41126730e-18	-1.95248857e-03	2.14773743e-04	-5.99106117e-05	2.52283497e-01	1.14695794e+00	1.14652840e+00	2.52283497e-01	-2.52283497e-01	-1.03615490e-03	-9.16333673e-04
0.032           	2.28726831e+00	-1.38222637e-18	-2.05653681e-03	2.26219049e-04	-6.34134872e-05	2.51599514e-01	1.14386037e+00	1.14340794e+00	2.51599514e-01	-2.51599514e-01	-1.09168189e-03	-9.64854919e-04
0.0325          	2.28143212e+00	-1.35367707e-18	-2.16938976e-03	2.38632874e-04	-6.69383245e-05	2.50957533e-01	1.14095469e+00	1.14047743e+00	2.50957533e-01	-2.50957533e-01	-1.15163320e-03	-1.01775656e-03
0.033           	2.27603439e+00	-1.32573771e-18	-2.58394445e-03	2.84233889e-04	-7.04975696e-05	2.50363783e-01	1.13830143e+00	1.13773296e+00	2.50363783e-01	-2.50363783e-01	-1.36246979e-03	-1.22147465e-03
0.0335          	2.27075450e+00	-1.29783598e-18	-2.54952819e-03	2.80448101e-04	-7.40749752e-05	2.49782995e-01	1.13565770e+00	1.13509680e+00	2.49782995e-01	-2.49782995e-01	-1.34883907e-03	-1.20068912e-03
0.034           	2.26582086e+00	-1.27009960e-18	-2.65367123e-03	2.91903836e-04	-7.76569636e-05	2.49240294e-01	1.13320233e+00	1.13261853e+00	2.49240294e-01	-2.49240294e-01	-1.40449258e-03	-1.24917865e-03
0.0345          	2.26127704e+00	-1.24501430e-18	-3.13131524e-03	3.44444677e-04	-8.13324642e-05	2.48740475e-01	1.13098297e+00	1.13029408e+00	2.48740475e-01	-2.48740475e-01	-1.64699009e-03	-1.48432516e-03
0.035           	2.25746836e+00	-1.21872039e-18	-2.65204685e-03	2.91725153e-04	-8.51039038e-05	2.48321520e-01	1.12902591e+00	1.12844246e+00	2.48321520e-01	-2.48321520e-01	-1.41112733e-03	-1.24091952e-03
0.0355          	2.25351739e+00	-1.19293080e-18	-2.60160334e-03	2.86176368e-04	-8.88944219e-05	2.47886913e-01	1.12704487e+00	1.12647252e+00	2.47886913e-01	-2.47886913e-01	-1.38969609e-03	-1.21190725e-03
0.036           	2.24966498e+00	-1.16768166e-18	-2.62184002e-03	2.88402402e-04	-9.27006490e-05	2.47463148e-01	1.12512089e+00	1.12454409e+00	2.47463148e-01	-2.47463148e-01	-1.40362066e-03	-1.21821936e-03
0.0365          	2.24612806e+00	-1.14255282e-18	-2.84835312e-03	3.13318843e-04	-9.65313995e-05	2.47074087e-01	1.12337735e+00	1.12275071e+00	2.47074087e-01	-2.47074087e-01	-1.52070796e-03	-1.32764516e-03
0.037           	2.24277273e+00	-1.11867613e-18	-2.84410647e-03	3.12851711e-04	-1.00335668e-04	2.46705001e-01	1.12169922e+00	1.12107352e+00	2.46705001e-01	-2.46705001e-01	-1.52238890e-03	-1.32171756e-03
0.0375          	2.23991506e+00	-1.09349705e-18	-3.41788520e-03	3.75967372e-04	-1.04209296e-04	2.46390657e-01	1.12033350e+00	1.11958156e+00	2.46390657e-01	-2.46390657e-01	-1.81315189e-03	-1.60473330e-03
0.038           	2.23707586e+00	-1.06908886e-18	-4.02636935e-03	4.42900629e-04	-1.08117243e-04	2.46078345e-01	1.11898083e+00	1.11809503e+00	2.46078345e-01	-2.46078345e-01	-2.12130192e-03	-1.90506743e-03
0.0385          	2.23468021e+00	-1.04616462e-18	-3.82384692e-03	4.20623161e-04	-1.12046726e-04	2.45814823e-01	1.11776073e+00	1.11691948e+00	2.45814823e-01	-2.45814823e-01	-2.02397018e-03	-1.79987673e-03
0.039           	2.23250580e+00	-1.02331632e-18	-3.55742346e-03	3.91316580e-04	-1.15993126e-04	2.45575638e-01	1.11664422e+00	1.11586158e+00	2.45575638e-01	-2.45575638e-01	-1.89470485e-03	-1.66271860e-03
0.0395          	2.23017487e+00	-9.99913161e-19	-3.35874206e-03	3.69461627e-04	-1.19945008e-04	2.45319236e-01	1.11545690e+00	1.11471797e+00	2.45319236e-01	-2.45319236e-01	-1.79931604e-03	-1.55942602e-03
0.04            	2.22809224e+00	-9.77333186e-19	-3.58726677e-03	3.94599345e-04	-1.23946415e-04	2.45090146e-01	1.11444072e+00	1.11365152e+00	2.45090146e-01	-2.45090146e-01	-1.91757980e-03	-1.66968697e-03
0.0405          	2.22643550e+00	-9.55736953e-19	-3.38701150e-03	3.72571265e-04	-1.27933974e-04	2.44907905e-01	1.11359032e+00	1.11284518e+00	2.44907905e-01	-2.44907905e-01	-1.82143972e-03	-1.56557178e-03
0.041           	2.22503518e+00	-9.33726169e-19	-3.50822529e-03	3.85904781e-04	-1.31961413e-04	2.44753870e-01	1.11290350e+00	1.11213169e+00	2.44753870e-01	-2.44753870e-01	-1.88607406e-03	-1.62215123e-03
0.0415          	2.22365108e+00	-9.11664962e-19	-3.45258683e-03	3.79784551e-04	-1.35987707e-04	2.44601619e-01	1.11220533e+00	1.11144576e+00	2.44601619e-01	-2.44601619e-01	-1.86228112e-03	-1.59030571e-03
0.042           	2.22240434e+00	-8.90137716e-19	-3.78409084e-03	4.16249993e-04	-1.39986523e-04	2.44464477e-01	1.11161842e+00	1.11078592e+00	2.44464477e-01	-2.44464477e-01	-2.03203194e-03	-1.75205890e-03
0.0425          	2.22119039e+00	-8.68823236e-19	-3.85761725e-03	4.24337898e-04	-1.43961928e-04	2.44330943e-01	1.11101953e+00	1.11017086e+00	2.44330943e-01	-2.44330943e-01	-2.07277055e-03	-1.78484670e-03
0.043           	2.22062742e+00	-8.48392229e-19	-3.81244346e-03	4.19368781e-04	-1.47912912e-04	2.44269017e-01	1.11073308e+00	1.10989434e+00	2.44269017e-01	-2.44269017e-01	-2.05413464e-03	-1.75830882e-03
0.0435          	2.21980389e+00	-8.27900492e-19	-3.90279536e-03	4.29307490e-04	-1.51841130e-04	2.44178428e-01	1.11033125e+00	1.10947264e+00	2.44178428e-01	-2.44178428e-01	-2.10323881e-03	-1.79955655e-03
0.044           	2.21924646e+00	-8.07709616e-19	-3.73431948e-03	4.10775143e-04	-1.55749354e-04	2.44117110e-01	1.11003400e+00	1.10921245e+00	2.44117110e-01	-2.44117110e-01	-2.02290910e-03	-1.71141039e-03
0.0445          	2.21883653e+00	-7.87854516e-19	-3.52689962e-03	3.87958958e-04	-1.59636964e-04	2.44072018e-01	1.10980622e+00	1.10903031e+00	2.44072018e-01	-2.44072018e-01	-1.92308677e-03	-1.60381284e-03
0.045           	2.21869942e+00	-7.67911702e-19	-3.90371977e-03	4.29409174e-04	-1.63505042e-04	2.44056936e-01	1.10977912e+00	1.10892030e+00	2.44056936e-01	-2.44056936e-01	-2.11536493e-03	-1.78835484e-03
0.0455          	2.21879991e+00	-7.47677301e-19	-4.01772225e-03	4.41949448e-04	-1.67353077e-04	2.44067990e-01	1.10984190e+00	1.10895800e+00	2.44067990e-01	-2.44067990e-01	-2.17621420e-03	-1.84150805e-03
0.046           	2.21905499e+00	-7.27625160e-19	-4.25575125e-03	4.68132637e-04	-1.71184464e-04	2.44096049e-01	1.10999563e+00	1.10905936e+00	2.44096049e-01	-2.44096049e-01	-2.29906009e-03	-1.95669116e-03
0.0465          	2.21921132e+00	-7.07182768e-19	-4.46286156e-03	4.90914772e-04	-1.75040990e-04	2.44113245e-01	1.11009657e+00	1.10911474e+00	2.44113245e-01	-2.44113245e-01	-2.40647177e-03	-2.05638979e-03
0.047           	2.21936947e+00	-6.88794120e-19	-4.40699220e-03	4.84769142e-04	-1.78735651e-04	2.44130641e-01	1.11016950e+00	1.10919996e+00	2.44130641e-01	-2.44130641e-01	-2.38223175e-03	-2.02476045e-03
0.0475          	2.21983547e+00	-6.71212440e-19	-5.54796701e-03	6.10276371e-04	-1.82357771e-04	2.44181902e-01	1.11052801e+00	1.10930746e+00	2.44181902e-01	-2.44181902e-01	-2.95634128e-03	-2.59162573e-03
0.048           	2.22090010e+00	-6.53038651e-19	-4.51111283e-03	4.96222411e-04	-1.85995879e-04	2.44299011e-01	1.11094627e+00	1.10995383e+00	2.44299011e-01	-2.44299011e-01	-2.44155229e-03	-2.06956054e-03
0.0485          	2.22127937e+00	-6.34986942e-19	-4.73969635e-03	5.21366598e-04	-1.89598462e-04	2.44340731e-01	1.11116105e+00	1.11011832e+00	2.44340731e-01	-2.44340731e-01	-2.55944664e-03	-2.18024971e-03
0.049           	2.22209837e+00	-6.16762009e-19	-4.70312819e-03	5.17344101e-04	-1.93165490e-04	2.44430821e-01	1.11156653e+00	1.11053184e+00	2.44430821e-01	-2.44430821e-01	-2.54472959e-03	-2.15839861e-03
0.0495          	2.22294253e+00	-5.98516968e-19	-4.70728763e-03	5.17801639e-04	-1.96698371e-04	2.44523679e-01	1.11198907e+00	1.11095347e+00	2.44523679e-01	-2.44523679e-01	-2.55034218e-03	-2.15694544e-03
0.05            	2.22402502e+00	-5.79908323e-19	-4.46625797e-03	4.91288377e-04	-2.00183433e-04	2.44642753e-01	1.11250380e+00	1.11152122e+00	2.44642753e-01	-2.44642753e-01	-2.43331242e-03	-2.03294555e-03
0.0505          	2.22476473e+00	-5.64190430e-19	-5.27853514e-03	5.80638866e-04	-2.03651707e-04	2.44724120e-01	1.11296300e+00	1.11180173e+00	2.44724120e-01	-2.44724120e-01	-2.84291928e-03	-2.43561586e-03
0.051           	2.22590613e+00	-5.47591316e-19	-5.15018005e-03	5.66519805e-04	-2.07080391e-04	2.44849674e-01	1.11351958e+00	1.11238654e+00	2.44849674e-01	-2.44849674e-01	-2.78217041e-03	-2.36800963e-03
0.0515          	2.22662779e+00	-5.31462829e-19	-5.55666205e-03	6.11232825e-04	-2.10482230e-04	2.44929057e-01	1.11392513e+00	1.11270266e+00	2.44929057e-01	-2.44929057e-01	-2.98881325e-03	-2.56784879e-03
0.052           	2.22806665e+00	-5.14186808e-19	-5.57018500e-03	6.12720350e-04	-2.13860950e-04	2.45087331e-01	1.11464605e+00	1.11342060e+00	2.45087331e-01	-2.45087331e-01	-2.99895345e-03	-2.57123155e-03
0.0525          	2.22947332e+00	-4.97279389e-19	-5.49224224e-03	6.04146646e-04	-2.17218488e-04	2.45242066e-01	1.11534081e+00	1.11413251e+00	2.45242066e-01	-2.45242066e-01	-2.96333961e-03	-2.52890263e-03
0.053           	2.23117356e+00	-4.80588384e-19	-5.93385504e-03	6.52724055e-04	-2.20555180e-04	2.45429091e-01	1.11623950e+00	1.11493406e+00	2.45429091e-01	-2.45429091e-01	-3.18748270e-03	-2.74637234e-03
0.0535          	2.23303304e+00	-4.64134284e-19	-5.85143470e-03	6.43657817e-04	-2.23877735e-04	2.45633634e-01	1.11716018e+00	1.11587286e+00	2.45633634e-01	-2.45633634e-01	-3.14959508e-03	-2.70183961e-03
0.054           	2.23492248e+00	-4.47516285e-19	-6.11656895e-03	6.72822584e-04	-2.27185959e-04	2.45841473e-01	1.11813406e+00	1.11678842e+00	2.45841473e-01	-2.45841473e-01	-3.28547043e-03	-2.83109851e-03
0.0545          	2.23678466e+00	-4.31462051e-19	-6.10676892e-03	6.71744581e-04	-2.30475622e-04	2.46046312e-01	1.11906407e+00	1.11772058e+00	2.46046312e-01	-2.46046312e-01	-3.28386008e-03	-2.82290884e-03
0.055           	2.23901126e+00	-4.15462537e-19	-6.18328421e-03	6.80161263e-04	-2.33746254e-04	2.46291238e-01	1.12018579e+00	1.11882547e+00	2.46291238e-01	-2.46291238e-01	-3.32538836e-03	-2.85789585e-03
0.0555          	2.24033431e+00	-4.00196012e-19	-6.20901251e-03	6.82991376e-04	-2.36993209e-04	2.46436774e-01	1.12085015e+00	1.11948416e+00	2.46436774e-01	-2.46436774e-01	-3.34149947e-03	-2.86751305e-03
0.056           	2.24237472e+00	-3.85197835e-19	-6.20409721e-03	6.82450693e-04	-2.40205369e-04	2.46661219e-01	1.12186981e+00	1.12050491e+00	2.46661219e-01	-2.46661219e-01	-3.34225397e-03	-2.86184324e-03
0.0565          	2.24428518e+00	-3.68650790e-19	-6.39868009e-03	7.03854810e-04	-2.43400434e-04	2.46871370e-01	1.12284644e+00	1.12143874e+00	2.46871370e-01	-2.46871370e-01	-3.44274048e-03	-2.95593961e-03
0.057           	2.24636474e+00	-3.53340661e-19	-6.53928560e-03	7.19321416e-04	-2.46597881e-04	2.47100121e-01	1.12390169e+00	1.12246305e+00	2.47100121e-01	-2.47100121e-01	-3.51624068e-03	-3.02304492e-03
0.0575          	2.24860966e+00	-3.37947294e-19	-6.65354736e-03	7.31890209e-04	-2.49797074e-04	2.47347063e-01	1.12503672e+00	1.12357294e+00	2.47347063e-01	-2.47347063e-01	-3.57657075e-03	-3.07697660e-03
0.058           	2.25100658e+00	-3.23195118e-19	-6.53111786e-03	7.18422965e-04	-2.52996702e-04	2.47610724e-01	1.12622171e+00	1.12478487e+00	2.47610724e-01	-2.47610724e-01	-3.51855563e-03	-3.01256223e-03
0.0585          	2.25349454e+00	-3.08577188e-19	-6.37808763e-03	7.01589640e-04	-2.56192465e-04	2.47884400e-01	1.12744886e+00	1.12604568e+00	2.47884400e-01	-2.47884400e-01	-3.44523628e-03	-2.93285135e-03
0.059           	2.25564245e+00	-2.93526848e-19	-5.99235353e-03	6.59158888e-04	-2.59382346e-04	2.48120670e-01	1.12848038e+00	1.12716207e+00	2.48120670e-01	-2.48120670e-01	-3.25555911e-03	-2.73679442e-03
0.0595          	2.25778105e+00	-2.78690713e-19	-6.34632919e-03	6.98096211e-04	-2.62576322e-04	2.48355916e-01	1.12958862e+00	1.12819243e+00	2.48355916e-01	-2.48355916e-01	-3.43574092e-03	-2.91058827e-03
0.06            	2.26047978e+00	-2.65349101e-19	-6.75334634e-03	7.42868098e-04	-2.65757800e-04	2.48652776e-01	1.13098276e+00	1.12949702e+00	2.48652776e-01	-2.48652776e-01	-3.64243097e-03	-3.11091537e-03
0.0605          	2.26334328e+00	-2.50909014e-19	-6.65490014e-03	7.32039015e-04	-2.68944466e-04	2.48967761e-01	1.13240368e+00	1.13093960e+00	2.48967761e-01	-2.48967761e-01	-3.59639454e-03	-3.05850560e-03
0.061           	2.26612638e+00	-2.36512900e-19	-6.77927308e-03	7.45720038e-04	-2.72135367e-04	2.49273902e-01	1.13380891e+00	1.13231747e+00	2.49273902e-01	-2.49273902e-01	-3.66177190e-03	-3.11750117e-03
0.0615          	2.26894973e+00	-2.21946522e-19	-7.00318329e-03	7.70350162e-04	-2.75315155e-04	2.49584470e-01	1.13524521e+00	1.13370451e+00	2.49584470e-01	-2.49584470e-01	-3.77690680e-03	-3.22627649e-03
0.062           	2.27177878e+00	-2.08631707e-19	-7.47063116e-03	8.21769428e-04	-2.78485784e-04	2.49895665e-01	1.13671116e+00	1.13506762e+00	2.49895665e-01	-2.49895665e-01	-4.01380137e-03	-3.45682980e-03
0.0625          	2.27547412e+00	-1.94527079e-19	-7.49429853e-03	8.24372838e-04	-2.81634470e-04	2.50302153e-01	1.13856143e+00	1.13691269e+00	2.50302153e-01	-2.50302153e-01	-4.02878373e-03	-3.46551479e-03
0.063           	2.27789173e+00	-1.81536429e-19	-7.24438267e-03	7.96882094e-04	-2.84766441e-04	2.50568090e-01	1.13974275e+00	1.13814898e+00	2.50568090e-01	-2.50568090e-01	-3.90695778e-03	-3.33742489e-03
0.0635          	2.28027917e+00	-1.68151058e-19	-7.20338533e-03	7.92372387e-04	-2.87872130e-04	2.50830709e-01	1.14093196e+00	1.13934721e+00	2.50830709e-01	-2.50830709e-01	-3.88956480e-03	-3.31382054e-03
0.064           	2.28289463e+00	-1.54904852e-19	-6.80499966e-03	7.48549962e-04	-2.90927301e-04	2.51118409e-01	1.14219586e+00	1.14069876e+00	2.51118409e-01	-2.51118409e-01	-3.69342713e-03	-3.11157253e-03
0.0645          	2.28595025e+00	-1.41433160e-19	-6.91450788e-03	7.60595866e-04	-2.93999724e-04	2.51454528e-01	1.14373572e+00	1.14221453e+00	2.51454528e-01	-2.51454528e-01	-3.75125366e-03	-3.16325421e-03
0.065           	2.28928748e+00	-1.28831294e-19	-7.50666869e-03	8.25733556e-04	-2.97131879e-04	2.51821622e-01	1.14546947e+00	1.14381800e+00	2.51821622e-01	-2.51821622e-01	-4.05046622e-03	-3.45620246e-03
0.0655          	2.29238646e+00	-1.15807639e-19	-7.48806494e-03	8.23687144e-04	-3.00302419e-04	2.52162510e-01	1.14701692e+00	1.14536954e+00	2.52162510e-01	-2.52162510e-01	-4.04433489e-03	-3.44373005e-03
0.066           	2.29583506e+00	-1.02573967e-19	-7.46140939e-03	8.20755033e-04	-3.03494334e-04	2.52541857e-01	1.14873828e+00	1.14709677e+00	2.52541857e-01	-2.52541857e-01	-4.03419903e-03	-3.42721036e-03
0.0665          	2.29852717e+00	-8.99314804e-20	-7.68018473e-03	8.44820321e-04	-3.06731773e-04	2.52837989e-01	1.15010841e+00	1.14841877e+00	2.52837989e-01	-2.52837989e-01	-4.14682414e-03	-3.53336059e-03
0.067           	2.30220174e+00	-7.80005203e-20	-7.62686039e-03	8.38954643e-04	-3.09964721e-04	2.53242191e-01	1.15193982e+00	1.15026191e+00	2.53242191e-01	-2.53242191e-01	-4.12339492e-03	-3.50346547e-03
0.0675          	2.30527849e+00	-6.48786963e-20	-7.62509674e-03	8.38760641e-04	-3.13221032e-04	2.53580633e-01	1.15347800e+00	1.15180048e+00	2.53580633e-01	-2.53580633e-01	-4.12576940e-03	-3.49932734e-03
0.068           	2.30867073e+00	-5.23269946e-20	-7.66010391e-03	8.42611430e-04	-3.16499484e-04	2.53953780e-01	1.15517798e+00	1.15349275e+00	2.53953780e-01	-2.53953780e-01	-4.14655144e-03	-3.51355247e-03
0.0685          	2.31207505e+00	-3.96977834e-20	-7.88856061e-03	8.67741667e-04	-3.19799101e-04	2.54328256e-01	1.15690527e+00	1.15516978e+00	2.54328256e-01	-2.54328256e-01	-4.26407941e-03	-3.62448120e-03
0.069           	2.31550687e+00	-2.70699649e-20	-7.71891565e-03	8.49080722e-04	-3.23120101e-04	2.54705755e-01	1.15860251e+00	1.15690435e+00	2.54705755e-01	-2.54705755e-01	-4.18257793e-03	-3.53633773e-03
0.0695          	2.31878152e+00	-1.48906839e-20	-7.51098686e-03	8.26208554e-04	-3.26467549e-04	2.55065967e-01	1.16021697e+00	1.15856455e+00	2.55065967e-01	-2.55065967e-01	-4.08196098e-03	-3.42902588e-03
0.07            	2.32196956e+00	-4.26964302e-21	-7.65824440e-03	8.42406883e-04	-3.29845676e-04	2.55416652e-01	1.16182719e+00	1.16014237e+00	2.55416652e-01	-2.55416652e-01	-4.15896787e-03	-3.49927652e-03
0.0705          	2.32553902e+00	7.61883648e-21	-7.55223851e-03	8.30746237e-04	-3.33261953e-04	2.55809292e-01	1.16360026e+00	1.16193876e+00	2.55809292e-01	-2.55809292e-01	-4.10938121e-03	-3.44285730e-03
0.071           	2.32951406e+00	2.02459491e-20	-7.60885765e-03	8.36974341e-04	-3.36716391e-04	2.56246546e-01	1.16559400e+00	1.16392005e+00	2.56246546e-01	-2.56246546e-01	-4.14114522e-03	-3.46771243e-03
0.0715          	2.33231686e+00	3.17292782e-20	-8.01830360e-03	8.82013396e-04	-3.40210776e-04	2.56554855e-01	1.16704045e+00	1.16527642e+00	2.56554855e-01	-2.56554855e-01	-4.34936258e-03	-3.66894102e-03