# Force coefficients
# dragDir       : (1.00000000e+00 0.00000000e+00 0.00000000e+00)
# sideDir       : (0.00000000e+00 0.00000000e+00 -1.00000000e+00)
# liftDir       : (0.00000000e+00 1.00000000e+00 0.00000000e+00)
# rollAxis      : (1.00000000e+00 0.00000000e+00 0.00000000e+00)
# pitchAxis     : (0.00000000e+00 0.00000000e+00 -1.00000000e+00)
# yawAxis       : (0.00000000e+00 1.00000000e+00 0.00000000e+00)
# magUInf       : 1.00000000e+00
# lRef          : 1.00000000e-01
# Aref          : 1.00000000e-03
# CofR          : (2.00000000e-01 2.00000000e-01 5.00000000e-03)
#
# Time          	Cd              	Cs              	Cl              	CmRoll          	CmPitch         	CmYaw           	Cd(f)           	Cd(r)           	Cs(f)           	Cs(r)           	Cl(f)           	Cl(r)           
2.19            	3.04695272e+00	2.78498165e-18	-1.57914998e+00	1.73706498e-01	-4.77733999e-03	3.35164799e-01	1.69718286e+00	1.34976986e+00	3.35164799e-01	-3.35164799e-01	-7.94352329e-01	-7.84797649e-01
2.1905          	3.04642313e+00	2.78770416e-18	-1.57539565e+00	1.73293522e-01	-4.68887612e-03	3.35106544e-01	1.69650509e+00	1.34991804e+00	3.35106544e-01	-3.35106544e-01	-7.92386703e-01	-7.83008951e-01
2.191           	3.04655032e+00	2.79368356e-18	-1.57381253e+00	1.73119379e-01	1.12569142e-02	3.35120535e-01	1.69639454e+00	1.35015578e+00	3.35120535e-01	-3.35120535e-01	-7.75649352e-01	-7.98163181e-01
2.1915          	3.04725343e+00	2.80092830e-18	-1.57261080e+00	1.72987188e-01	2.61819275e-02	3.35197877e-01	1.69661390e+00	1.35063953e+00	3.35197877e-01	-3.35197877e-01	-7.60123474e-01	-8.12487329e-01
2.192           	3.04710798e+00	2.80721534e-18	-1.56731060e+00	1.72404166e-01	4.01890557e-02	3.35181878e-01	1.69595816e+00	1.35114983e+00	3.35181878e-01	-3.35181878e-01	-7.43466244e-01	-8.23844356e-01
2.1925          	3.04792923e+00	2.81609611e-18	-1.56480231e+00	1.72128255e-01	5.33697173e-02	3.35272216e-01	1.69609287e+00	1.35183636e+00	3.35272216e-01	-3.35272216e-01	-7.29031440e-01	-8.35770874e-01
2.193           	3.04785593e+00	2.82419211e-18	-1.56230890e+00	1.71853979e-01	6.58051996e-02	3.35264152e-01	1.69578194e+00	1.35207398e+00	3.35264152e-01	-3.35264152e-01	-7.15349252e-01	-8.46959651e-01
2.1935          	3.04736635e+00	2.83496277e-18	-1.55930367e+00	1.71523403e-01	7.75678409e-02	3.35210298e-01	1.69520658e+00	1.35215977e+00	3.35210298e-01	-3.35210298e-01	-7.02083993e-01	-8.57219675e-01
2.194           	3.04709528e+00	2.84499955e-18	-1.55603305e+00	1.71163635e-01	8.87221403e-02	3.35180480e-01	1.69471127e+00	1.35238400e+00	3.35180480e-01	-3.35180480e-01	-6.89294383e-01	-8.66738663e-01
2.1945          	3.04919972e+00	2.85464766e-18	-1.55646962e+00	1.71211658e-01	9.93253304e-02	3.35411969e-01	1.69581152e+00	1.35338820e+00	3.35411969e-01	-3.35411969e-01	-6.78909480e-01	-8.77560141e-01
2.195           	3.04847216e+00	2.86695566e-18	-1.55135847e+00	1.70649432e-01	1.09428611e-01	3.35331938e-01	1.69488551e+00	1.35358665e+00	3.35331938e-01	-3.35331938e-01	-6.66250625e-01	-8.85107847e-01
2.1955          	3.04884708e+00	2.87650282e-18	-1.55090337e+00	1.70599370e-01	1.19077673e-01	3.35373178e-01	1.69502291e+00	1.35382417e+00	3.35373178e-01	-3.35373178e-01	-6.56374011e-01	-8.94529356e-01
2.196           	3.04914442e+00	2.88920925e-18	-1.54845000e+00	1.70329500e-01	1.28313338e-01	3.35405887e-01	1.69490171e+00	1.35424271e+00	3.35405887e-01	-3.35405887e-01	-6.45911664e-01	-9.02538340e-01
2.1965          	3.04885422e+00	2.89896743e-18	-1.54465882e+00	1.69912470e-01	1.37172110e-01	3.35373964e-01	1.69433958e+00	1.35451464e+00	3.35373964e-01	-3.35373964e-01	-6.35157301e-01	-9.09501521e-01
2.197           	3.04804927e+00	2.91296527e-18	-1.54422185e+00	1.69864403e-01	1.45686620e-01	3.35285420e-01	1.69388904e+00	1.35416023e+00	3.35285420e-01	-3.35285420e-01	-6.26424303e-01	-9.17797544e-01
2.1975          	3.04732303e+00	2.92707789e-18	-1.54032585e+00	1.69435844e-01	1.53885805e-01	3.35205533e-01	1.69309736e+00	1.35422567e+00	3.35205533e-01	-3.35205533e-01	-6.16277122e-01	-9.24048732e-01
2.198           	3.04659836e+00	2.93806122e-18	-1.53511750e+00	1.68862925e-01	1.61796258e-01	3.35125819e-01	1.69216210e+00	1.35443625e+00	3.35125819e-01	-3.35125819e-01	-6.05762493e-01	-9.29355009e-01
2.1985          	3.04591031e+00	2.95098369e-18	-1.53205327e+00	1.68525860e-01	1.69441634e-01	3.35050134e-01	1.69148101e+00	1.35442929e+00	3.35050134e-01	-3.35050134e-01	-5.96585001e-01	-9.35468270e-01
2.199           	3.04453467e+00	2.96203844e-18	-1.52927576e+00	1.68220333e-01	1.76843426e-01	3.34898813e-01	1.69048767e+00	1.35404700e+00	3.34898813e-01	-3.34898813e-01	-5.87794453e-01	-9.41481305e-01
2.1995          	3.04439964e+00	2.98004427e-18	-1.52545989e+00	1.67800588e-01	1.84020167e-01	3.34883960e-01	1.69000041e+00	1.35439923e+00	3.34883960e-01	-3.34883960e-01	-5.78709777e-01	-9.46750112e-01
2.2             	3.04311203e+00	2.99506871e-18	-1.52258354e+00	1.67484190e-01	1.90988948e-01	3.34742324e-01	1.68904021e+00	1.35407183e+00	3.34742324e-01	-3.34742324e-01	-5.70302824e-01	-9.52280721e-01
2.2005          	3.04200780e+00	3.01040527e-18	-1.51888983e+00	1.67077881e-01	1.97765243e-01	3.34620858e-01	1.68808178e+00	1.35392602e+00	3.34620858e-01	-3.34620858e-01	-5.61679672e-01	-9.57210158e-01
2.201           	3.04032096e+00	3.02605955e-18	-1.51435855e+00	1.66579441e-01	1.88194462e-01	3.34435305e-01	1.68673992e+00	1.35358104e+00	3.34435305e-01	-3.34435305e-01	-5.68984814e-01	-9.45373739e-01
2.2015          	3.04102820e+00	3.03793540e-18	-1.51195561e+00	1.66315118e-01	1.79499164e-01	3.34513102e-01	1.68682922e+00	1.35419898e+00	3.34513102e-01	-3.34513102e-01	-5.76478643e-01	-9.35476971e-01
2.202           	3.04013384e+00	3.05213785e-18	-1.50811087e+00	1.65892195e-01	1.71585793e-01	3.34414722e-01	1.68595911e+00	1.35417472e+00	3.34414722e-01	-3.34414722e-01	-5.82469640e-01	-9.25641226e-01
2.2025          	3.03907678e+00	3.06568315e-18	-1.50398152e+00	1.65437967e-01	1.64371476e-01	3.34298446e-01	1.68497636e+00	1.35410042e+00	3.34298446e-01	-3.34298446e-01	-5.87619282e-01	-9.16362235e-01
2.203           	3.03839551e+00	3.07843219e-18	-1.49963027e+00	1.64959329e-01	1.57782754e-01	3.34223506e-01	1.68415708e+00	1.35423843e+00	3.34223506e-01	-3.34223506e-01	-5.92032379e-01	-9.07597888e-01
2.2035          	3.03723713e+00	3.09113801e-18	-1.49458617e+00	1.64404479e-01	1.51754431e-01	3.34096084e-01	1.68302304e+00	1.35421409e+00	3.34096084e-01	-3.34096084e-01	-5.95538654e-01	-8.99047516e-01
2.204           	3.03655325e+00	3.10285937e-18	-1.49048604e+00	1.63953465e-01	1.46228631e-01	3.34020858e-01	1.68223009e+00	1.35432316e+00	3.34020858e-01	-3.34020858e-01	-5.99014392e-01	-8.91471653e-01
2.2045          	3.03564081e+00	3.11545528e-18	-1.48551082e+00	1.63406191e-01	1.41153938e-01	3.33920489e-01	1.68122660e+00	1.35441422e+00	3.33920489e-01	-3.33920489e-01	-6.01601473e-01	-8.83909350e-01
2.205           	3.03446947e+00	3.12798450e-18	-1.47948992e+00	1.62743891e-01	1.36484649e-01	3.33791641e-01	1.67997862e+00	1.35449084e+00	3.33791641e-01	-3.33791641e-01	-6.03260309e-01	-8.76229607e-01
2.2055          	3.03329164e+00	3.14019817e-18	-1.47223510e+00	1.61945861e-01	1.32180118e-01	3.33662081e-01	1.67859168e+00	1.35469996e+00	3.33662081e-01	-3.33662081e-01	-6.03937430e-01	-8.68297665e-01
2.206           	3.03310171e+00	3.14966335e-18	-1.46791554e+00	1.61470710e-01	1.28204159e-01	3.33641188e-01	1.67802157e+00	1.35508015e+00	3.33641188e-01	-3.33641188e-01	-6.05753613e-01	-8.62161931e-01
2.2065          	3.03185387e+00	3.16046820e-18	-1.46186363e+00	1.60804999e-01	1.24524563e-01	3.33503926e-01	1.67673194e+00	1.35512194e+00	3.33503926e-01	-3.33503926e-01	-6.06407251e-01	-8.55456377e-01
2.207           	3.03091057e+00	3.17148455e-18	-1.45599079e+00	1.60158987e-01	1.21112647e-01	3.33400163e-01	1.67561427e+00	1.35529630e+00	3.33400163e-01	-3.33400163e-01	-6.06882747e-01	-8.49108040e-01
2.2075          	3.02931882e+00	3.18259281e-18	-1.44827690e+00	1.59310459e-01	1.17942814e-01	3.33225070e-01	1.67396987e+00	1.35534895e+00	3.33225070e-01	-3.33225070e-01	-6.06195637e-01	-8.42081265e-01
2.208           	3.02786135e+00	3.19518613e-18	-1.44164413e+00	1.58580855e-01	1.14992159e-01	3.33064749e-01	1.67251153e+00	1.35534982e+00	3.33064749e-01	-3.33064749e-01	-6.05829908e-01	-8.35814225e-01
2.2085          	3.02771612e+00	3.20465664e-18	-1.43554274e+00	1.57909701e-01	1.12239988e-01	3.33048773e-01	1.67176776e+00	1.35594836e+00	3.33048773e-01	-3.33048773e-01	-6.05531380e-01	-8.30011356e-01
2.209           	3.02582476e+00	3.21455947e-18	-1.43012072e+00	1.57313279e-01	1.09668001e-01	3.32840724e-01	1.67022566e+00	1.35559910e+00	3.32840724e-01	-3.32840724e-01	-6.05392358e-01	-8.24728360e-01
2.2095          	3.02485518e+00	3.22450518e-18	-1.42365492e+00	1.56602042e-01	1.07259863e-01	3.32734070e-01	1.66902963e+00	1.35582555e+00	3.32734070e-01	-3.32734070e-01	-6.04567599e-01	-8.19087324e-01
2.21            	3.02346026e+00	3.23396462e-18	-1.41651230e+00	1.55816353e-01	1.05000938e-01	3.32580628e-01	1.66754648e+00	1.35591378e+00	3.32580628e-01	-3.32580628e-01	-6.03255213e-01	-8.13257088e-01
2.2105          	3.02196798e+00	3.24498962e-18	-1.40891000e+00	1.54980100e-01	1.02878103e-01	3.32416478e-01	1.66596409e+00	1.35600389e+00	3.32416478e-01	-3.32416478e-01	-6.01576897e-01	-8.07333104e-01
2.211           	3.02126958e+00	3.25411217e-18	-1.40292099e+00	1.54321309e-01	1.00703124e-01	3.32339654e-01	1.66495610e+00	1.35631348e+00	3.32339654e-01	-3.32339654e-01	-6.00757371e-01	-8.02163618e-01
2.2115          	3.02003420e+00	3.26481908e-18	-1.39461616e+00	1.53407777e-01	9.86532320e-02	3.32203762e-01	1.66342488e+00	1.35660932e+00	3.32203762e-01	-3.32203762e-01	-5.98654847e-01	-7.95961311e-01
2.212           	3.01906745e+00	3.27213310e-18	-1.38766149e+00	1.52642764e-01	9.67177571e-02	3.32097420e-01	1.66217649e+00	1.35689096e+00	3.32097420e-01	-3.32097420e-01	-5.97112990e-01	-7.90548504e-01
2.2125          	3.01735122e+00	3.28248948e-18	-1.37864394e+00	1.51650834e-01	9.48871010e-02	3.31908634e-01	1.66032644e+00	1.35702478e+00	3.31908634e-01	-3.31908634e-01	-5.94434870e-01	-7.84209072e-01
2.213           	3.01635531e+00	3.29063168e-18	-1.37127636e+00	1.50840400e-01	9.31526253e-02	3.31799085e-01	1.65901806e+00	1.35733726e+00	3.31799085e-01	-3.31799085e-01	-5.92485555e-01	-7.78790806e-01
2.2135          	3.01465237e+00	3.29920632e-18	-1.36292481e+00	1.49921729e-01	9.15065488e-02	3.31611761e-01	1.65724791e+00	1.35740446e+00	3.31611761e-01	-3.31611761e-01	-5.89955858e-01	-7.72968955e-01
2.214           	3.01361714e+00	3.30737423e-18	-1.35533221e+00	1.49086543e-01	8.99418545e-02	3.31497885e-01	1.65589511e+00	1.35772203e+00	3.31497885e-01	-3.31497885e-01	-5.87724248e-01	-7.67607957e-01
2.2145          	3.01228153e+00	3.31693226e-18	-1.34722564e+00	1.48194821e-01	8.84522078e-02	3.31350969e-01	1.65433559e+00	1.35794595e+00	3.31350969e-01	-3.31350969e-01	-5.85160614e-01	-7.62065030e-01
2.215           	3.01034461e+00	3.32646893e-18	-1.33797607e+00	1.47177368e-01	8.70318342e-02	3.31137907e-01	1.65234967e+00	1.35799494e+00	3.31137907e-01	-3.31137907e-01	-5.81956202e-01	-7.56019870e-01
2.2155          	3.00927539e+00	3.33390457e-18	-1.32970579e+00	1.46267637e-01	8.56755383e-02	3.31020293e-01	1.65090533e+00	1.35837006e+00	3.31020293e-01	-3.31020293e-01	-5.79177356e-01	-7.50528432e-01
2.216           	3.00757215e+00	3.34206805e-18	-1.32071239e+00	1.45278363e-01	8.43786107e-02	3.30832937e-01	1.64906444e+00	1.35850771e+00	3.30832937e-01	-3.30832937e-01	-5.75977585e-01	-7.44734807e-01
2.2165          	3.00619871e+00	3.35069308e-18	-1.31215584e+00	1.44337142e-01	8.31367772e-02	3.30681858e-01	1.64743650e+00	1.35876221e+00	3.30681858e-01	-3.30681858e-01	-5.72941141e-01	-7.39214695e-01
2.217           	3.00468270e+00	3.35816839e-18	-1.30354588e+00	1.43390046e-01	8.19461516e-02	3.30515097e-01	1.64573140e+00	1.35895130e+00	3.30515097e-01	-3.30515097e-01	-5.69826787e-01	-7.33719090e-01
2.2175          	3.00369432e+00	3.36540917e-18	-1.29519542e+00	1.42471496e-01	8.08031940e-02	3.30406376e-01	1.64431866e+00	1.35937567e+00	3.30406376e-01	-3.30406376e-01	-5.66794517e-01	-7.28400905e-01
2.218           	3.00244473e+00	3.37335367e-18	-1.28616741e+00	1.41478415e-01	7.97046765e-02	3.30268920e-01	1.64270078e+00	1.35974395e+00	3.30268920e-01	-3.30268920e-01	-5.63379027e-01	-7.22788380e-01
2.2185          	3.00042078e+00	3.38043992e-18	-1.27600420e+00	1.40360462e-01	7.86476625e-02	3.30046286e-01	1.64057085e+00	1.35984993e+00	3.30046286e-01	-3.30046286e-01	-5.59354436e-01	-7.16649761e-01
2.219           	2.99904977e+00	3.38863224e-18	-1.26622561e+00	1.39284817e-01	7.76294627e-02	3.29895474e-01	1.63880970e+00	1.36024007e+00	3.29895474e-01	-3.29895474e-01	-5.55483341e-01	-7.10742266e-01
2.2195          	2.99825123e+00	3.39641022e-18	-1.25713117e+00	1.38284428e-01	7.66476100e-02	3.29807635e-01	1.63741004e+00	1.36084118e+00	3.29807635e-01	-3.29807635e-01	-5.51917974e-01	-7.05213194e-01
2.22            	2.99656626e+00	3.40260499e-18	-1.24806148e+00	1.37286763e-01	7.56998560e-02	3.29622289e-01	1.63556989e+00	1.36099637e+00	3.29622289e-01	-3.29622289e-01	-5.48330885e-01	-6.99730597e-01
2.2205          	2.99416744e+00	3.41013450e-18	-1.23884235e+00	1.36272658e-01	7.47841416e-02	3.29358418e-01	1.63335638e+00	1.36081106e+00	3.29358418e-01	-3.29358418e-01	-5.44637031e-01	-6.94205315e-01
2.221           	2.99227992e+00	3.41915649e-18	-1.22932981e+00	1.35226279e-01	7.33735694e-02	3.29150791e-01	1.63136624e+00	1.36091368e+00	3.29150791e-01	-3.29150791e-01	-5.41291334e-01	-6.88038473e-01
2.2215          	2.99041638e+00	3.42663695e-18	-1.21795056e+00	1.33974561e-01	7.20251814e-02	3.28945802e-01	1.62918275e+00	1.36123363e+00	3.28945802e-01	-3.28945802e-01	-5.36950097e-01	-6.81000460e-01
2.222           	2.98885917e+00	3.43526725e-18	-1.20852306e+00	1.32937536e-01	7.07339520e-02	3.28774508e-01	1.62736712e+00	1.36149205e+00	3.28774508e-01	-3.28774508e-01	-5.33527576e-01	-6.74995480e-01
2.2225          	2.98745338e+00	3.44127600e-18	-1.19864772e+00	1.31851250e-01	6.94953581e-02	3.28619871e-01	1.62557794e+00	1.36187544e+00	3.28619871e-01	-3.28619871e-01	-5.29828504e-01	-6.68819221e-01
2.223           	2.98582038e+00	3.44780294e-18	-1.18837224e+00	1.30720947e-01	6.83053337e-02	3.28440242e-01	1.62363114e+00	1.36218924e+00	3.28440242e-01	-3.28440242e-01	-5.25880787e-01	-6.62491455e-01
2.2235          	2.98414243e+00	3.45458898e-18	-1.17872011e+00	1.29659212e-01	6.71602073e-02	3.28255667e-01	1.62173043e+00	1.36241200e+00	3.28255667e-01	-3.28255667e-01	-5.22199846e-01	-6.56520261e-01
2.224           	2.98228724e+00	3.46185210e-18	-1.16880795e+00	1.28568875e-01	6.60566647e-02	3.28051597e-01	1.61971250e+00	1.36257475e+00	3.28051597e-01	-3.28051597e-01	-5.18347311e-01	-6.50460641e-01
2.2245          	2.98005161e+00	3.46720141e-18	-1.15763436e+00	1.27339779e-01	6.49917095e-02	3.27805677e-01	1.61736558e+00	1.36268603e+00	3.27805677e-01	-3.27805677e-01	-5.13825470e-01	-6.43808889e-01
2.225           	2.97855154e+00	3.47345222e-18	-1.14734728e+00	1.26208201e-01	6.39626263e-02	3.27640669e-01	1.61548397e+00	1.36306757e+00	3.27640669e-01	-3.27640669e-01	-5.09711016e-01	-6.37636269e-01
2.2255          	2.97691421e+00	3.47888922e-18	-1.13802123e+00	1.25182336e-01	6.29669538e-02	3.27460563e-01	1.61363944e+00	1.36327477e+00	3.27460563e-01	-3.27460563e-01	-5.06043663e-01	-6.31977570e-01
2.226           	2.97494612e+00	3.48476019e-18	-1.12739385e+00	1.24013323e-01	6.20024574e-02	3.27244073e-01	1.61148638e+00	1.36345974e+00	3.27244073e-01	-3.27244073e-01	-5.01694466e-01	-6.25699381e-01
2.2265          	2.97320199e+00	3.49055327e-18	-1.11639915e+00	1.22803907e-01	6.10671058e-02	3.27052218e-01	1.60940490e+00	1.36379709e+00	3.27052218e-01	-3.27052218e-01	-4.97132472e-01	-6.19266683e-01
2.227           	2.97126835e+00	3.49725339e-18	-1.10511028e+00	1.21562130e-01	6.01590498e-02	3.26839519e-01	1.60719631e+00	1.36407205e+00	3.26839519e-01	-3.26839519e-01	-4.92396088e-01	-6.12714188e-01
2.2275          	2.96899076e+00	3.50152221e-18	-1.09380009e+00	1.20318010e-01	5.92766027e-02	3.26588984e-01	1.60481339e+00	1.36417737e+00	3.26588984e-01	-3.26588984e-01	-4.87623443e-01	-6.06176648e-01
2.228           	2.96755528e+00	3.50846844e-18	-1.08336483e+00	1.19170131e-01	5.84182235e-02	3.26431081e-01	1.60294777e+00	1.36460751e+00	3.26431081e-01	-3.26431081e-01	-4.83264191e-01	-6.00100638e-01
2.2285          	2.96597394e+00	3.51415641e-18	-1.07239824e+00	1.17963806e-01	5.75824946e-02	3.26257134e-01	1.60095078e+00	1.36502316e+00	3.26257134e-01	-3.26257134e-01	-4.78616623e-01	-5.93781612e-01
2.229           	2.96419875e+00	3.51958348e-18	-1.06158630e+00	1.16774493e-01	5.67681197e-02	3.26061862e-01	1.59887387e+00	1.36532488e+00	3.26061862e-01	-3.26061862e-01	-4.74025033e-01	-5.87561272e-01
2.2295          	2.96222774e+00	3.52454091e-18	-1.05047363e+00	1.15552099e-01	5.59739104e-02	3.25845051e-01	1.59666597e+00	1.36556177e+00	3.25845051e-01	-3.25845051e-01	-4.69262903e-01	-5.81210724e-01
2.23            	2.96030796e+00	3.53068535e-18	-1.03921812e+00	1.14313993e-01	5.51987748e-02	3.25633875e-01	1.59446797e+00	1.36583999e+00	3.25633875e-01	-3.25633875e-01	-4.64410283e-01	-5.74807833e-01
2.2305          	2.95835419e+00	3.53651839e-18	-1.02801509e+00	1.13081660e-01	5.44417073e-02	3.25418961e-01	1.59225875e+00	1.36609543e+00	3.25418961e-01	-3.25418961e-01	-4.59565838e-01	-5.68449252e-01
2.231           	2.95614576e+00	3.54073024e-18	-1.01670699e+00	1.11837768e-01	5.21921722e-02	3.25176034e-01	1.58991065e+00	1.36623511e+00	3.25176034e-01	-3.25176034e-01	-4.56161321e-01	-5.60545665e-01
2.2315          	2.95467672e+00	3.54568094e-18	-1.00585858e+00	1.10644444e-01	5.00561333e-02	3.25014439e-01	1.58798280e+00	1.36669392e+00	3.25014439e-01	-3.25014439e-01	-4.52873157e-01	-5.52985423e-01
2.232           	2.95257303e+00	3.54978145e-18	-9.92860684e-01	1.09214675e-01	4.80230031e-02	3.24783033e-01	1.58550119e+00	1.36707184e+00	3.24783033e-01	-3.24783033e-01	-4.48407339e-01	-5.44453345e-01
2.2325          	2.95065938e+00	3.55481717e-18	-9.81049637e-01	1.07915460e-01	4.60833421e-02	3.24572532e-01	1.58324515e+00	1.36741423e+00	3.24572532e-01	-3.24572532e-01	-4.44441476e-01	-5.36608161e-01
2.233           	2.94880586e+00	3.56027695e-18	-9.69474632e-01	1.06642209e-01	4.42287311e-02	3.24368644e-01	1.58104514e+00	1.36776072e+00	3.24368644e-01	-3.24368644e-01	-4.40508585e-01	-5.28966047e-01
2.2335          	2.94691688e+00	3.56523017e-18	-9.57951210e-01	1.05374633e-01	4.24516551e-02	3.24160857e-01	1.57883308e+00	1.36808381e+00	3.24160857e-01	-3.24160857e-01	-4.36523950e-01	-5.21427260e-01
2.234           	2.94512291e+00	3.56862826e-18	-9.46288257e-01	1.04091708e-01	4.07454038e-02	3.23963520e-01	1.57665316e+00	1.36846975e+00	3.23963520e-01	-3.23963520e-01	-4.32398725e-01	-5.13889533e-01
2.2345          	2.94350254e+00	3.57268880e-18	-9.34910401e-01	1.02840144e-01	3.91039910e-02	3.23785280e-01	1.57459142e+00	1.36891113e+00	3.23785280e-01	-3.23785280e-01	-4.28351210e-01	-5.06559192e-01
2.235           	2.94117635e+00	3.57608686e-18	-9.23008324e-01	1.01530916e-01	3.75221306e-02	3.23529398e-01	1.57211909e+00	1.36905726e+00	3.23529398e-01	-3.23529398e-01	-4.23982031e-01	-4.99026292e-01
2.2355          	2.94016833e+00	3.58068662e-18	-9.11521114e-01	1.00267323e-01	3.59947885e-02	3.23418516e-01	1.57035149e+00	1.36981684e+00	3.23418516e-01	-3.23418516e-01	-4.19765768e-01	-4.91755345e-01
2.236           	2.93851011e+00	3.58493518e-18	-8.99409818e-01	9.89350800e-02	3.45175217e-02	3.23236112e-01	1.56819014e+00	1.37031998e+00	3.23236112e-01	-3.23236112e-01	-4.15187387e-01	-4.84222431e-01
2.2365          	2.93610743e+00	3.58854537e-18	-8.86490707e-01	9.75139778e-02	3.30864604e-02	3.22971817e-01	1.56556769e+00	1.37053974e+00	3.22971817e-01	-3.22971817e-01	-4.10158893e-01	-4.76331814e-01
2.237           	2.93439057e+00	3.59109753e-18	-8.73934368e-01	9.61327805e-02	3.16981166e-02	3.22782962e-01	1.56332806e+00	1.37106250e+00	3.22782962e-01	-3.22782962e-01	-4.05269068e-01	-4.68665301e-01
2.2375          	2.93221514e+00	3.59364759e-18	-8.62576221e-01	9.48833843e-02	3.03493444e-02	3.22543666e-01	1.56099096e+00	1.37122419e+00	3.22543666e-01	-3.22543666e-01	-4.00938766e-01	-4.61637455e-01
2.238           	2.93036708e+00	3.59777919e-18	-8.49911391e-01	9.34902530e-02	2.90373070e-02	3.22340379e-01	1.55867379e+00	1.37169329e+00	3.22340379e-01	-3.22340379e-01	-3.95918389e-01	-4.53993003e-01
2.2385          	2.92886482e+00	3.60223345e-18	-8.37091784e-01	9.20800962e-02	2.77594402e-02	3.22175130e-01	1.55651251e+00	1.37235231e+00	3.22175130e-01	-3.22175130e-01	-3.90786452e-01	-4.46305332e-01
2.239           	2.92695017e+00	3.60588957e-18	-8.25195627e-01	9.07715189e-02	2.65134218e-02	3.21964518e-01	1.55424660e+00	1.37270356e+00	3.21964518e-01	-3.21964518e-01	-3.86084392e-01	-4.39111235e-01
2.2395          	2.92505289e+00	3.60816422e-18	-8.13145744e-01	8.94460318e-02	2.52971475e-02	3.21755818e-01	1.55197248e+00	1.37308042e+00	3.21755818e-01	-3.21755818e-01	-3.81275724e-01	-4.31870019e-01
2.24            	2.92284899e+00	3.61106719e-18	-7.99997987e-01	8.79997786e-02	2.41087080e-02	3.21513389e-01	1.54942427e+00	1.37342472e+00	3.21513389e-01	-3.21513389e-01	-3.75890286e-01	-4.24107702e-01
2.2405          	2.92085753e+00	3.61345270e-18	-7.88115203e-01	8.66926723e-02	2.29463666e-02	3.21294328e-01	1.54712143e+00	1.37373609e+00	3.21294328e-01	-3.21294328e-01	-3.71111235e-01	-4.17003968e-01
2.241           	2.91886373e+00	3.61664166e-18	-7.75383526e-01	8.52921879e-02	2.17366709e-02	3.21075010e-01	1.54472405e+00	1.37413968e+00	3.21075010e-01	-3.21075010e-01	-3.65955092e-01	-4.09428434e-01
2.2415          	2.91679574e+00	3.61876801e-18	-7.62774904e-01	8.39052394e-02	2.05546893e-02	3.20847531e-01	1.54230311e+00	1.37449263e+00	3.20847531e-01	-3.20847531e-01	-3.60832763e-01	-4.01942141e-01
2.242           	2.91514818e+00	3.62040689e-18	-7.50245561e-01	8.25270117e-02	1.93986332e-02	3.20666300e-01	1.54010110e+00	1.37504708e+00	3.20666300e-01	-3.20666300e-01	-3.55724147e-01	-3.94521414e-01
2.2425          	2.91332395e+00	3.62226388e-18	-7.37774924e-01	8.11552416e-02	1.82668836e-02	3.20465634e-01	1.53781721e+00	1.37550673e+00	3.20465634e-01	-3.20465634e-01	-3.50620578e-01	-3.87154346e-01
2.243           	2.91159546e+00	3.62456168e-18	-7.25612214e-01	7.98173435e-02	1.71579672e-02	3.20275500e-01	1.53561507e+00	1.37598039e+00	3.20275500e-01	-3.20275500e-01	-3.45648140e-01	-3.79964074e-01
2.2435          	2.90994611e+00	3.62699345e-18	-7.12129746e-01	7.83342720e-02	1.60705402e-02	3.20094072e-01	1.53330733e+00	1.37663878e+00	3.20094072e-01	-3.20094072e-01	-3.39994333e-01	-3.72135413e-01
2.244           	2.90807988e+00	3.62954242e-18	-6.99076715e-01	7.68984386e-02	1.50033761e-02	3.19888787e-01	1.53093838e+00	1.37714150e+00	3.19888787e-01	-3.19888787e-01	-3.34534981e-01	-3.64541733e-01
2.2445          	2.90630558e+00	3.63148925e-18	-6.86221382e-01	7.54843520e-02	1.39553499e-02	3.19693614e-01	1.52863714e+00	1.37766844e+00	3.19693614e-01	-3.19693614e-01	-3.29155341e-01	-3.57066041e-01
2.245           	2.90428037e+00	3.63278429e-18	-6.72626345e-01	7.39888979e-02	1.29254468e-02	3.19470841e-01	1.52612908e+00	1.37815129e+00	3.19470841e-01	-3.19470841e-01	-3.23387725e-01	-3.49238619e-01
2.2455          	2.90243106e+00	3.63496692e-18	-6.59678608e-01	7.25646469e-02	1.19127305e-02	3.19267416e-01	1.52378018e+00	1.37865088e+00	3.19267416e-01	-3.19267416e-01	-3.17926574e-01	-3.41752034e-01
2.246           	2.90079242e+00	3.63514625e-18	-6.47044639e-01	7.11749102e-02	1.09163371e-02	3.19087166e-01	1.52157112e+00	1.37922130e+00	3.19087166e-01	-3.19087166e-01	-3.12605982e-01	-3.34438656e-01
2.2465          	2.89899134e+00	3.63730557e-18	-6.34570949e-01	6.98028044e-02	9.93547153e-03	3.18889047e-01	1.51929847e+00	1.37969286e+00	3.18889047e-01	-3.18889047e-01	-3.07350003e-01	-3.27220946e-01
2.247           	2.89754641e+00	3.63902385e-18	-6.21914642e-01	6.84106106e-02	8.96940880e-03	3.18730105e-01	1.51718381e+00	1.38036259e+00	3.18730105e-01	-3.18730105e-01	-3.01987912e-01	-3.19926730e-01
2.2475          	2.89591241e+00	3.64060029e-18	-6.08271469e-01	6.69098616e-02	8.01747321e-03	3.18550365e-01	1.51486607e+00	1.38104635e+00	3.18550365e-01	-3.18550365e-01	-2.96118261e-01	-3.12153208e-01
2.248           	2.89425378e+00	3.64218790e-18	-5.94373961e-01	6.53811357e-02	7.07904117e-03	3.18367916e-01	1.51250803e+00	1.38174576e+00	3.18367916e-01	-3.18367916e-01	-2.90107939e-01	-3.04266022e-01
2.2485          	2.89257536e+00	3.64259875e-18	-5.81114474e-01	6.39225921e-02	6.15353125e-03	3.18183289e-01	1.51021027e+00	1.38236509e+00	3.18183289e-01	-3.18183289e-01	-2.84403706e-01	-2.96710768e-01
2.249           	2.89024214e+00	3.64035958e-18	-5.68589149e-01	6.25448064e-02	5.24039868e-03	3.17926635e-01	1.50766588e+00	1.38257626e+00	3.17926635e-01	-3.17926635e-01	-2.79054176e-01	-2.89534973e-01
2.2495          	2.88878262e+00	3.64020371e-18	-5.56104961e-01	6.11715457e-02	4.33914437e-03	3.17766089e-01	1.50556286e+00	1.38321977e+00	3.17766089e-01	-3.17766089e-01	-2.73713336e-01	-2.82391625e-01
2.25            	2.88668846e+00	3.63757843e-18	-5.43703745e-01	5.98074119e-02	3.44929677e-03	3.17535730e-01	1.50315164e+00	1.38353682e+00	3.17535730e-01	-3.17535730e-01	-2.68402576e-01	-2.75301169e-01
2.2505          	2.88505599e+00	3.63995499e-18	-5.30281932e-01	5.83310125e-02	2.57042554e-03	3.17356159e-01	1.50085901e+00	1.38419698e+00	3.17356159e-01	-3.17356159e-01	-2.62570540e-01	-2.67711391e-01
2.251           	2.88417446e+00	3.64130821e-18	-5.17566237e-01	5.69322861e-02	1.22503560e-03	3.17259190e-01	1.49901951e+00	1.38515494e+00	3.17259190e-01	-3.17259190e-01	-2.57558083e-01	-2.60008154e-01
2.2515          	2.88269522e+00	3.64125496e-18	-5.03728902e-01	5.54101792e-02	-7.94372023e-05	3.17096474e-01	1.49675779e+00	1.38593743e+00	3.17096474e-01	-3.17096474e-01	-2.51943888e-01	-2.51785014e-01
2.252           	2.88112586e+00	3.64136093e-18	-4.90964297e-01	5.40060727e-02	-1.34644393e-03	3.16923845e-01	1.49456900e+00	1.38655686e+00	3.16923845e-01	-3.16923845e-01	-2.46828593e-01	-2.44135705e-01
2.2525          	2.87977860e+00	3.64104893e-18	-4.77957367e-01	5.25753104e-02	-2.57906894e-03	3.16775647e-01	1.49246461e+00	1.38731399e+00	3.16775647e-01	-3.16775647e-01	-2.41557753e-01	-2.36399615e-01
2.253           	2.87839767e+00	3.64104890e-18	-4.64546260e-01	5.11000886e-02	-3.78007561e-03	3.16623744e-01	1.49029892e+00	1.38809875e+00	3.16623744e-01	-3.16623744e-01	-2.36053206e-01	-2.28493054e-01
2.2535          	2.87628348e+00	3.64188478e-18	-4.51329962e-01	4.96462958e-02	-4.95193819e-03	3.16391182e-01	1.48778803e+00	1.38849544e+00	3.16391182e-01	-3.16391182e-01	-2.30616919e-01	-2.20713043e-01
2.254           	2.87528886e+00	3.64177999e-18	-4.38587384e-01	4.82446122e-02	-6.09687050e-03	3.16281774e-01	1.48588904e+00	1.38939982e+00	3.16281774e-01	-3.16281774e-01	-2.25390563e-01	-2.13196822e-01
2.2545          	2.87385554e+00	3.64197050e-18	-4.24740837e-01	4.67214921e-02	-7.21686476e-03	3.16124109e-01	1.48364926e+00	1.39020628e+00	3.16124109e-01	-3.16124109e-01	-2.19587283e-01	-2.05153554e-01
2.255           	2.87264207e+00	3.64189162e-18	-4.11430935e-01	4.52574029e-02	-8.31371248e-03	3.15990628e-01	1.48157844e+00	1.39106363e+00	3.15990628e-01	-3.15990628e-01	-2.14029180e-01	-1.97401755e-01
2.2555          	2.87161559e+00	3.64167518e-18	-3.98593108e-01	4.38452418e-02	-9.38903164e-03	3.15877715e-01	1.47965304e+00	1.39196255e+00	3.15877715e-01	-3.15877715e-01	-2.08685585e-01	-1.89907522e-01
2.256           	2.86978508e+00	3.64048129e-18	-3.84337823e-01	4.22771605e-02	-1.04442635e-02	3.15676359e-01	1.47716970e+00	1.39261538e+00	3.15676359e-01	-3.15676359e-01	-2.02613175e-01	-1.81724648e-01
2.2565          	2.86887942e+00	3.63968768e-18	-3.71408359e-01	4.08549195e-02	-1.14807138e-02	3.15576736e-01	1.47529463e+00	1.39358479e+00	3.15576736e-01	-3.15576736e-01	-1.97184893e-01	-1.74223466e-01
2.257           	2.86766348e+00	3.63877000e-18	-3.58350400e-01	3.94185440e-02	-1.24995717e-02	3.15442983e-01	1.47325028e+00	1.39441320e+00	3.15442983e-01	-3.15442983e-01	-1.91674772e-01	-1.66675628e-01
2.2575          	2.86647606e+00	3.63529841e-18	-3.45731978e-01	3.80305176e-02	-1.35019020e-02	3.15312366e-01	1.47126855e+00	1.39520751e+00	3.15312366e-01	-3.15312366e-01	-1.86367891e-01	-1.59364087e-01
2.258           	2.86482339e+00	3.63446787e-18	-3.31688835e-01	3.64857719e-02	-1.44886339e-02	3.15130573e-01	1.46889747e+00	1.39592592e+00	3.15130573e-01	-3.15130573e-01	-1.80333052e-01	-1.51355784e-01
2.2585          	2.86313898e+00	3.63220867e-18	-3.17586698e-01	3.49345368e-02	-1.54605320e-02	3.14945287e-01	1.46650402e+00	1.39663495e+00	3.14945287e-01	-3.14945287e-01	-1.74253881e-01	-1.43332817e-01
2.259           	2.86251086e+00	3.63229453e-18	-3.04561853e-01	3.35018039e-02	-1.64186869e-02	3.14876195e-01	1.46475723e+00	1.39775363e+00	3.14876195e-01	-3.14876195e-01	-1.68699614e-01	-1.35862240e-01
2.2595          	2.86137783e+00	3.62996215e-18	-2.91034324e-01	3.20137757e-02	-1.73638348e-02	3.14751561e-01	1.46270269e+00	1.39867514e+00	3.14751561e-01	-3.14751561e-01	-1.62880997e-01	-1.28153327e-01
2.26            	2.86024849e+00	3.62878968e-18	-2.77841312e-01	3.05625444e-02	-1.82966346e-02	3.14627333e-01	1.46068679e+00	1.39956170e+00	3.14627333e-01	-3.14627333e-01	-1.57217291e-01	-1.20624022e-01
2.2605          	2.85941010e+00	3.62771869e-18	-2.63958685e-01	2.90354554e-02	-1.92176902e-02	3.14535111e-01	1.45874050e+00	1.40066959e+00	3.14535111e-01	-3.14535111e-01	-1.51197033e-01	-1.12761652e-01
2.261           	2.85822593e+00	3.62567096e-18	-2.50736993e-01	2.75810693e-02	-2.18054390e-02	3.14404852e-01	1.45669403e+00	1.40153190e+00	3.14404852e-01	-3.14404852e-01	-1.47173936e-01	-1.03563058e-01
2.2615          	2.85684262e+00	3.62348789e-18	-2.36679704e-01	2.60347675e-02	-2.42744561e-02	3.14252688e-01	1.45445608e+00	1.40238654e+00	3.14252688e-01	-3.14252688e-01	-1.42614308e-01	-9.40653961e-02
2.262           	2.85618240e+00	3.62140585e-18	-2.23600730e-01	2.45960803e-02	-2.66360995e-02	3.14180064e-01	1.45268728e+00	1.40349512e+00	3.14180064e-01	-3.14180064e-01	-1.38436465e-01	-8.51642656e-02