# Force coefficients
# dragDir       : (1.00000000e+00 0.00000000e+00 0.00000000e+00)
# sideDir       : (0.00000000e+00 0.00000000e+00 -1.00000000e+00)
# liftDir       : (0.00000000e+00 1.00000000e+00 0.00000000e+00)
# rollAxis      : (1.00000000e+00 0.00000000e+00 0.00000000e+00)
# pitchAxis     : (0.00000000e+00 0.00000000e+00 -1.00000000e+00)
# yawAxis       : (0.00000000e+00 1.00000000e+00 0.00000000e+00)
# magUInf       : 1.00000000e+00
# lRef          : 1.00000000e-01
# Aref          : 1.00000000e-03
# CofR          : (2.00000000e-01 2.00000000e-01 5.00000000e-03)
#
# Time          	Cd              	Cs              	Cl              	CmRoll          	CmPitch         	CmYaw           	Cd(f)           	Cd(r)           	Cs(f)           	Cs(r)           	Cl(f)           	Cl(r)           
0.00058823529   	5.82221250e+02	-1.47231898e-14	-9.13580260e-01	1.00493829e-01	-6.91808829e-02	6.40443375e+01	2.91211119e+02	2.91010131e+02	6.40443375e+01	-6.40443375e+01	-5.25971013e-01	-3.87609247e-01
0.0013122172    	5.44336147e+00	-1.79776312e-18	1.53266999e-02	-1.68593699e-03	-1.47471337e-01	5.98769762e-01	2.71999480e+00	2.72336667e+00	5.98769762e-01	-5.98769762e-01	-1.39807987e-01	1.55134687e-01
0.0021809955    	4.88017956e+00	-1.48446372e-18	1.43895642e-02	-1.58285206e-03	-2.31985061e-01	5.36819752e-01	2.43850693e+00	2.44167263e+00	5.36819752e-01	-5.36819752e-01	-2.24790279e-01	2.39179843e-01
0.003158371     	4.33212641e+00	-1.31093351e-18	4.58157775e-02	-5.03973553e-03	-3.17001788e-01	4.76533906e-01	2.16102347e+00	2.17110294e+00	4.76533906e-01	-4.76533906e-01	-2.94093899e-01	3.39909676e-01
0.0041357466    	3.93180454e+00	-1.16247581e-18	7.64886098e-02	-8.41374708e-03	-3.93406608e-01	4.32498500e-01	1.95748852e+00	1.97431602e+00	4.32498500e-01	-4.32498500e-01	-3.55162303e-01	4.31650913e-01
0.0051131222    	3.60186089e+00	-1.03973357e-18	1.04336561e-01	-1.14770217e-02	-4.62372506e-01	3.96204698e-01	1.78945342e+00	1.81240747e+00	3.96204698e-01	-3.96204698e-01	-4.10204225e-01	5.14540786e-01
0.0060904977    	3.32924803e+00	-9.30304055e-19	1.31369263e-01	-1.44506190e-02	-5.24837617e-01	3.66217283e-01	1.65017340e+00	1.67907463e+00	3.66217283e-01	-3.66217283e-01	-4.59152985e-01	5.90522248e-01
0.0070678733    	3.10139552e+00	-8.32837665e-19	1.59994171e-01	-1.75993589e-02	-5.81554059e-01	3.41153507e-01	1.53309840e+00	1.56829712e+00	3.41153507e-01	-3.41153507e-01	-5.01556973e-01	6.61551145e-01
0.0080452489    	2.90985424e+00	-7.44517475e-19	1.86592829e-01	-2.05252112e-02	-6.33127726e-01	3.20083966e-01	1.43440191e+00	1.47545233e+00	3.20083966e-01	-3.20083966e-01	-5.39831312e-01	7.26424140e-01
0.0090226244    	2.74844806e+00	-6.67177012e-19	2.15503151e-01	-2.37053466e-02	-6.80046130e-01	3.02329286e-01	1.35051868e+00	1.39792938e+00	3.02329286e-01	-3.02329286e-01	-5.72294555e-01	7.87797706e-01
0.01            	2.61056784e+00	-5.95380133e-19	2.44629493e-01	-2.69092442e-02	-7.22703644e-01	2.87162462e-01	1.27837467e+00	1.33219316e+00	2.87162462e-01	-2.87162462e-01	-6.00388898e-01	8.45018390e-01
0.011           	2.49007566e+00	-5.29289493e-19	2.74109731e-01	-3.01520704e-02	-7.62258175e-01	2.73908322e-01	1.21488576e+00	1.27518990e+00	2.73908322e-01	-2.73908322e-01	-6.25203309e-01	8.99313040e-01
0.012           	2.38803934e+00	-4.69223765e-19	3.08409738e-01	-3.39250712e-02	-7.97971585e-01	2.62684327e-01	1.16009460e+00	1.22794474e+00	2.62684327e-01	-2.62684327e-01	-6.43766716e-01	9.52176454e-01
0.013           	2.30047733e+00	-4.16007058e-19	3.41608775e-01	-3.75769652e-02	-8.30069035e-01	2.53052507e-01	1.11266170e+00	1.18781563e+00	2.53052507e-01	-2.53052507e-01	-6.59264648e-01	1.00087342e+00
0.014           	2.22520125e+00	-3.69125922e-19	3.76882879e-01	-4.14571166e-02	-8.58733152e-01	2.44772137e-01	1.07114351e+00	1.15405774e+00	2.44772137e-01	-2.44772137e-01	-6.70291713e-01	1.04717459e+00
0.015           	2.16004874e+00	-3.29008014e-19	4.12252960e-01	-4.53478256e-02	-8.84115798e-01	2.37605361e-01	1.03467654e+00	1.12537220e+00	2.37605361e-01	-2.37605361e-01	-6.77989318e-01	1.09024228e+00
0.016           	2.10371421e+00	-2.86263278e-19	4.48956259e-01	-4.93851885e-02	-9.06342729e-01	2.31408564e-01	1.00247192e+00	1.10124230e+00	2.31408564e-01	-2.31408564e-01	-6.81864599e-01	1.13082086e+00
0.017           	2.05423936e+00	-2.52593023e-19	4.85358558e-01	-5.33894414e-02	-9.25518522e-01	2.25966329e-01	9.73730238e-01	1.08050912e+00	2.25966329e-01	-2.25966329e-01	-6.82839242e-01	1.16819780e+00
0.018           	2.01168828e+00	-2.19438831e-19	5.20944879e-01	-5.73039367e-02	-9.41732744e-01	2.21285711e-01	9.48540204e-01	1.06314808e+00	2.21285711e-01	-2.21285711e-01	-6.81260304e-01	1.20220518e+00
0.019           	1.97578441e+00	-1.87932798e-19	5.57142283e-01	-6.12856511e-02	-9.55062293e-01	2.17336285e-01	9.26606555e-01	1.04917786e+00	2.17336285e-01	-2.17336285e-01	-6.76491152e-01	1.23363343e+00
0.02            	1.94384913e+00	-1.58340060e-19	5.93128147e-01	-6.52440961e-02	-9.65574846e-01	2.13823405e-01	9.06680470e-01	1.03716866e+00	2.13823405e-01	-2.13823405e-01	-6.69010773e-01	1.26213892e+00
0.021           	1.91586009e+00	-1.29138878e-19	6.28328592e-01	-6.91161451e-02	-9.73330825e-01	2.10744610e-01	8.88813899e-01	1.02704619e+00	2.10744610e-01	-2.10744610e-01	-6.59166529e-01	1.28749512e+00
0.022           	1.89156296e+00	-1.02073848e-19	6.62716825e-01	-7.28988507e-02	-9.78384847e-01	2.08071925e-01	8.72882628e-01	1.01868033e+00	2.08071925e-01	-2.08071925e-01	-6.47026435e-01	1.30974326e+00
0.023           	1.87085786e+00	-7.80899706e-20	6.96421156e-01	-7.66063272e-02	-9.80787325e-01	2.05794365e-01	8.58822604e-01	1.01203526e+00	2.05794365e-01	-2.05794365e-01	-6.32576747e-01	1.32899790e+00
0.024           	1.85292231e+00	-5.46234085e-20	7.29058024e-01	-8.01963826e-02	-9.80586032e-01	2.03821455e-01	8.46264775e-01	1.00665754e+00	2.03821455e-01	-2.03821455e-01	-6.16057020e-01	1.34511504e+00
0.025           	1.83825250e+00	-3.07428855e-20	7.61381856e-01	-8.37520041e-02	-9.77826926e-01	2.02207775e-01	8.35374248e-01	1.00287826e+00	2.02207775e-01	-2.02207775e-01	-5.97135998e-01	1.35851785e+00
0.026           	1.82661149e+00	-7.74391697e-21	7.94485665e-01	-8.73934232e-02	-9.72554743e-01	2.00927264e-01	8.25912324e-01	1.00069917e+00	2.00927264e-01	-2.00927264e-01	-5.75311910e-01	1.36979758e+00
0.027           	1.81727286e+00	1.46953332e-20	8.26140484e-01	-9.08754532e-02	-9.64813831e-01	1.99900014e-01	8.17760974e-01	9.99511881e-01	1.99900014e-01	-1.99900014e-01	-5.51743589e-01	1.37788407e+00
0.028           	1.81014872e+00	3.85791211e-20	8.57074372e-01	-9.42781809e-02	-9.54648827e-01	1.99116359e-01	8.10796178e-01	9.99352540e-01	1.99116359e-01	-1.99116359e-01	-5.26111641e-01	1.38318601e+00
0.029           	1.80571584e+00	6.15334378e-20	8.87479431e-01	-9.76227374e-02	-9.42105448e-01	1.98628742e-01	8.05235180e-01	1.00048066e+00	1.98628742e-01	-1.98628742e-01	-4.98365732e-01	1.38584516e+00
0.03            	1.80339964e+00	8.43318978e-20	9.17994096e-01	-1.00979351e-01	-9.27230385e-01	1.98373960e-01	8.00720469e-01	1.00267917e+00	1.98373960e-01	-1.98373960e-01	-4.68233337e-01	1.38622743e+00
0.031           	1.80409554e+00	1.07129394e-19	9.47320632e-01	-1.04205269e-01	-9.10071696e-01	1.98450509e-01	7.97842500e-01	1.00625304e+00	1.98450509e-01	-1.98450509e-01	-4.36411380e-01	1.38373201e+00
0.032           	1.80740564e+00	1.32388222e-19	9.75783989e-01	-1.07336239e-01	-8.90679585e-01	1.98814620e-01	7.96366579e-01	1.01103906e+00	1.98814620e-01	-1.98814620e-01	-4.02787591e-01	1.37857158e+00
0.033           	1.81137585e+00	1.55640720e-19	1.00370139e+00	-1.10407153e-01	-8.69106825e-01	1.99251344e-01	7.95280772e-01	1.01609508e+00	1.99251344e-01	-1.99251344e-01	-3.67256128e-01	1.37095752e+00
0.034           	1.81690323e+00	1.77201824e-19	1.02958831e+00	-1.13254714e-01	-8.45408397e-01	1.99859355e-01	7.95196899e-01	1.02170633e+00	1.99859355e-01	-1.99859355e-01	-3.30614241e-01	1.36020255e+00
0.035           	1.82321070e+00	2.02121817e-19	1.05457126e+00	-1.16002839e-01	-8.19641876e-01	2.00553177e-01	7.95602510e-01	1.02760819e+00	2.00553177e-01	-2.00553177e-01	-2.92356245e-01	1.34692751e+00
0.036           	1.83054212e+00	2.27889298e-19	1.07736272e+00	-1.18509899e-01	-7.91867733e-01	2.01359634e-01	7.96761162e-01	1.03378096e+00	2.01359634e-01	-2.01359634e-01	-2.53186373e-01	1.33054909e+00
0.037           	1.84047305e+00	2.51280702e-19	1.10133201e+00	-1.21146521e-01	-7.62149336e-01	2.02452035e-01	7.99090003e-01	1.04138304e+00	2.02452035e-01	-2.02452035e-01	-2.11483333e-01	1.31281534e+00
0.038           	1.85004179e+00	2.76230760e-19	1.12345591e+00	-1.23580150e-01	-7.30553318e-01	2.03504597e-01	8.01440744e-01	1.04860104e+00	2.03504597e-01	-2.03504597e-01	-1.68825365e-01	1.29228127e+00
0.039           	1.86029223e+00	3.01952110e-19	1.14418972e+00	-1.25860870e-01	-6.97149349e-01	2.04632145e-01	8.04285244e-01	1.05600698e+00	2.04632145e-01	-2.04632145e-01	-1.25054487e-01	1.26924421e+00
0.04            	1.87155678e+00	3.27759013e-19	1.16518247e+00	-1.28170072e-01	-6.62010405e-01	2.05871246e-01	8.07608320e-01	1.06394846e+00	2.05871246e-01	-2.05871246e-01	-7.94191689e-02	1.24460164e+00
0.041           	1.88300236e+00	3.52571606e-19	1.18367692e+00	-1.30204461e-01	-6.25212693e-01	2.07130260e-01	8.11296719e-01	1.07170564e+00	2.07130260e-01	-2.07130260e-01	-3.33742314e-02	1.21705115e+00
0.042           	1.89559754e+00	3.74797683e-19	1.20132630e+00	-1.32145894e-01	-5.86835840e-01	2.08515729e-01	8.15652876e-01	1.07994466e+00	2.08515729e-01	-2.08515729e-01	1.38273127e-02	1.18749899e+00
0.043           	1.90813629e+00	3.97117374e-19	1.21799220e+00	-1.33979142e-01	-5.46962566e-01	2.09894992e-01	8.20089002e-01	1.08804729e+00	2.09894992e-01	-2.09894992e-01	6.20335333e-02	1.15595867e+00
0.044           	1.91984170e+00	4.20394695e-19	1.23405589e+00	-1.35746148e-01	-5.05678657e-01	2.11182587e-01	8.24174704e-01	1.09566700e+00	2.11182587e-01	-2.11182587e-01	1.11349288e-01	1.12270660e+00
0.045           	1.93267756e+00	4.42324643e-19	1.24913463e+00	-1.37404810e-01	-4.63072978e-01	2.12594531e-01	8.28933970e-01	1.10374359e+00	2.12594531e-01	-2.12594531e-01	1.61494338e-01	1.08764029e+00
0.046           	1.94458047e+00	4.64023174e-19	1.26247635e+00	-1.38872398e-01	-4.19237444e-01	2.13903852e-01	8.33417837e-01	1.11116263e+00	2.13903852e-01	-2.13903852e-01	2.12000730e-01	1.05047562e+00
0.047           	1.95845785e+00	4.82444683e-19	1.27690319e+00	-1.40459351e-01	-3.74266741e-01	2.15430364e-01	8.38769574e-01	1.11968828e+00	2.15430364e-01	-2.15430364e-01	2.64184856e-01	1.01271834e+00
0.048           	1.97074860e+00	5.03329353e-19	1.28788405e+00	-1.41667246e-01	-3.28258170e-01	2.16782346e-01	8.43707053e-01	1.12704154e+00	2.16782346e-01	-2.16782346e-01	3.15683857e-01	9.72200196e-01
0.049           	1.98324623e+00	5.23286660e-19	1.29818394e+00	-1.42800233e-01	-2.81311727e-01	2.18157085e-01	8.48822881e-01	1.13442335e+00	2.18157085e-01	-2.18157085e-01	3.67780240e-01	9.30403695e-01
0.05            	1.99514911e+00	5.42094750e-19	1.30721925e+00	-1.43794117e-01	-2.33529699e-01	2.19466402e-01	8.53780439e-01	1.14136867e+00	2.19466402e-01	-2.19466402e-01	4.20079926e-01	8.87139324e-01
0.051           	2.00578665e+00	5.59592704e-19	1.31468979e+00	-1.44615877e-01	-1.85016754e-01	2.20636531e-01	8.58277448e-01	1.14750920e+00	2.20636531e-01	-2.20636531e-01	4.72328139e-01	8.42361647e-01
0.052           	2.01845691e+00	5.75172942e-19	1.32259357e+00	-1.45485293e-01	-1.35879412e-01	2.22030260e-01	8.63743162e-01	1.15471375e+00	2.22030260e-01	-2.22030260e-01	5.25417372e-01	7.97176197e-01
0.053           	2.03020427e+00	5.90873189e-19	1.32979446e+00	-1.46277391e-01	-8.62255037e-02	2.23322470e-01	8.68824744e-01	1.16137953e+00	2.23322470e-01	-2.23322470e-01	5.78671728e-01	7.51122735e-01
0.054           	2.04170175e+00	6.06368100e-19	1.33572966e+00	-1.46930263e-01	-3.61643711e-02	2.24587193e-01	8.73920613e-01	1.16778114e+00	2.24587193e-01	-2.24587193e-01	6.31700459e-01	7.04029201e-01
0.055           	2.05170970e+00	6.21867163e-19	1.33930970e+00	-1.47324067e-01	1.41934407e-02	2.25688068e-01	8.78530785e-01	1.17317892e+00	2.25688068e-01	-2.25688068e-01	6.83848290e-01	6.55461409e-01
0.056           	2.06273153e+00	6.36880549e-19	1.34361878e+00	-1.47798066e-01	6.47366634e-02	2.26900468e-01	8.83567699e-01	1.17916383e+00	2.26900468e-01	-2.26900468e-01	7.36546055e-01	6.07072728e-01
0.057           	2.07290262e+00	6.52928599e-19	1.34587075e+00	-1.48045782e-01	1.15353294e-01	2.28019288e-01	8.88405527e-01	1.18449709e+00	2.28019288e-01	-2.28019288e-01	7.88288669e-01	5.57582080e-01
0.058           	2.08135082e+00	6.68305834e-19	1.34816014e+00	-1.48297615e-01	1.65931065e-01	2.28948590e-01	8.92377793e-01	1.18897302e+00	2.28948590e-01	-2.28948590e-01	8.40011133e-01	5.08149004e-01
0.059           	2.09020297e+00	6.81932933e-19	1.35085948e+00	-1.48594543e-01	2.16357448e-01	2.29922327e-01	8.96506942e-01	1.19369603e+00	2.29922327e-01	-2.29922327e-01	8.91787187e-01	4.59072291e-01
0.06            	2.09860173e+00	6.95555534e-19	1.35260899e+00	-1.48786989e-01	2.66520663e-01	2.30846191e-01	9.00513877e-01	1.19808786e+00	2.30846191e-01	-2.30846191e-01	9.42825158e-01	4.09783833e-01
0.061           	2.10751479e+00	7.10093837e-19	1.35187267e+00	-1.48705994e-01	3.16309921e-01	2.31826626e-01	9.05051399e-01	1.20246339e+00	2.31826626e-01	-2.31826626e-01	9.92246258e-01	3.59626416e-01
0.062           	2.11723253e+00	7.24475786e-19	1.35246040e+00	-1.48770644e-01	3.65615431e-01	2.32895579e-01	9.09845622e-01	1.20738691e+00	2.32895579e-01	-2.32895579e-01	1.04184563e+00	3.10614768e-01
0.063           	2.12564836e+00	7.39353282e-19	1.35116850e+00	-1.48628535e-01	4.14328103e-01	2.33821319e-01	9.14195644e-01	1.21145271e+00	2.33821319e-01	-2.33821319e-01	1.08991235e+00	2.61256145e-01
0.064           	2.13387819e+00	7.59961395e-19	1.34960671e+00	-1.48456738e-01	4.62341436e-01	2.34726601e-01	9.18482358e-01	1.21539583e+00	2.34726601e-01	-2.34726601e-01	1.13714479e+00	2.12461920e-01
0.065           	2.14117408e+00	7.81580587e-19	1.34747548e+00	-1.48222303e-01	5.09550767e-01	2.35529149e-01	9.22364736e-01	1.21880934e+00	2.35529149e-01	-2.35529149e-01	1.18328851e+00	1.64186972e-01
0.066           	2.14879417e+00	8.05573600e-19	1.34615870e+00	-1.48077457e-01	5.55853569e-01	2.36367359e-01	9.26319629e-01	1.22247454e+00	2.36367359e-01	-2.36367359e-01	1.22893292e+00	1.17225782e-01
0.067           	2.15493472e+00	8.33331747e-19	1.34331933e+00	-1.47765126e-01	6.01150019e-01	2.37042819e-01	9.29702235e-01	1.22523249e+00	2.37042819e-01	-2.37042819e-01	1.27280968e+00	7.05096456e-02
0.068           	2.16268959e+00	8.60949862e-19	1.34326378e+00	-1.47759016e-01	6.45342751e-01	2.37895855e-01	9.33585778e-01	1.22910381e+00	2.37895855e-01	-2.37895855e-01	1.31697464e+00	2.62891409e-02
0.069           	2.17002094e+00	8.92458887e-19	1.34024119e+00	-1.47426531e-01	6.88337325e-01	2.38702303e-01	9.37583939e-01	1.23243700e+00	2.38702303e-01	-2.38702303e-01	1.35845792e+00	-1.82167271e-02
0.07            	2.17708097e+00	9.24200671e-19	1.33861965e+00	-1.47248161e-01	7.30042640e-01	2.39478906e-01	9.41292322e-01	1.23578864e+00	2.39478906e-01	-2.39478906e-01	1.39935246e+00	-6.07328165e-02
0.071           	2.18449036e+00	9.77426797e-19	1.33438330e+00	-1.46782164e-01	7.70370354e-01	2.40293939e-01	9.45463015e-01	1.23902734e+00	2.40293939e-01	-2.40293939e-01	1.43756201e+00	-1.03178701e-01
0.072           	2.18985750e+00	1.00193347e-18	1.33269059e+00	-1.46595965e-01	8.09239243e-01	2.40884326e-01	9.48332788e-01	1.24152472e+00	2.40884326e-01	-2.40884326e-01	1.47558454e+00	-1.42893949e-01
0.073           	2.19787580e+00	1.04486373e-18	1.32973048e+00	-1.46270353e-01	8.46568928e-01	2.41766338e-01	9.52667549e-01	1.24520825e+00	2.41766338e-01	-2.41766338e-01	1.51143417e+00	-1.81703689e-01
0.074           	2.20552937e+00	1.09045228e-18	1.32658464e+00	-1.45924311e-01	8.82283778e-01	2.42608231e-01	9.56840376e-01	1.24868900e+00	2.42608231e-01	-2.42608231e-01	1.54557610e+00	-2.18991457e-01
0.075           	2.21278756e+00	1.13942844e-18	1.32372789e+00	-1.45610068e-01	9.16313312e-01	2.43406632e-01	9.60783712e-01	1.25200385e+00	2.43406632e-01	-2.43406632e-01	1.57817726e+00	-2.54449367e-01
0.076           	2.22014252e+00	1.19252036e-18	1.31943617e+00	-1.45137978e-01	9.48589955e-01	2.44215677e-01	9.64933279e-01	1.25520924e+00	2.44215677e-01	-2.44215677e-01	1.60830804e+00	-2.88871871e-01
0.077           	2.22721492e+00	1.24733000e-18	1.31400209e+00	-1.44540230e-01	9.79050533e-01	2.44993642e-01	9.69067232e-01	1.25814769e+00	2.44993642e-01	-2.44993642e-01	1.63605158e+00	-3.22049486e-01
0.078           	2.23434873e+00	1.30321219e-18	1.31130444e+00	-1.44243489e-01	1.00763650e+00	2.45778360e-01	9.72930876e-01	1.26141785e+00	2.45778360e-01	-2.45778360e-01	1.66328872e+00	-3.51984276e-01
0.079           	2.24056729e+00	1.36531007e-18	1.30619146e+00	-1.43681060e-01	1.03429438e+00	2.46462402e-01	9.76602583e-01	1.26396470e+00	2.46462402e-01	-2.46462402e-01	1.68739011e+00	-3.81198652e-01
0.08            	2.24720454e+00	1.42682223e-18	1.30143180e+00	-1.43157498e-01	1.05897308e+00	2.47192500e-01	9.80444774e-01	1.26675977e+00	2.47192500e-01	-2.47192500e-01	1.70968898e+00	-4.08257184e-01
0.081           	2.25402199e+00	1.49224342e-18	1.29611081e+00	-1.42572189e-01	1.08163038e+00	2.47942419e-01	9.84438805e-01	1.26958318e+00	2.47942419e-01	-2.47942419e-01	1.72968579e+00	-4.33574980e-01
0.082           	2.25946185e+00	1.57327359e-18	1.28682168e+00	-1.41550385e-01	1.10222033e+00	2.48540804e-01	9.88180541e-01	1.27128131e+00	2.48540804e-01	-2.48540804e-01	1.74563117e+00	-4.58809492e-01
0.083           	2.26592578e+00	1.65547511e-18	1.28087951e+00	-1.40896747e-01	1.12070673e+00	2.49251836e-01	9.92066143e-01	1.27385964e+00	2.49251836e-01	-2.49251836e-01	1.76114648e+00	-4.80266969e-01
0.084           	2.27295119e+00	1.74262321e-18	1.27440535e+00	-1.40184588e-01	1.13705782e+00	2.50024631e-01	9.96291008e-01	1.27666018e+00	2.50024631e-01	-2.50024631e-01	1.77426049e+00	-4.99855142e-01
0.085           	2.28310577e+00	1.83023450e-18	1.27210755e+00	-1.39931830e-01	1.15124592e+00	2.51141634e-01	1.00162105e+00	1.28148471e+00	2.51141634e-01	-2.51141634e-01	1.78729970e+00	-5.15192150e-01
0.086           	2.29014169e+00	1.92329323e-18	1.26784859e+00	-1.39463345e-01	1.16324782e+00	2.51915586e-01	1.00560750e+00	1.28453419e+00	2.51915586e-01	-2.51915586e-01	1.79717212e+00	-5.29323527e-01
0.087           	2.29415499e+00	2.02539606e-18	1.26186514e+00	-1.38805166e-01	1.17304428e+00	2.52357049e-01	1.00827233e+00	1.28588266e+00	2.52357049e-01	-2.52357049e-01	1.80397685e+00	-5.42111705e-01
0.088           	2.29822968e+00	2.12323242e-18	1.25566157e+00	-1.38122773e-01	1.18061907e+00	2.52805265e-01	1.01099207e+00	1.28723761e+00	2.52805265e-01	-2.52805265e-01	1.80844986e+00	-5.52788287e-01
0.089           	2.30600957e+00	2.22605045e-18	1.24968653e+00	-1.37465518e-01	1.18596013e+00	2.53661053e-01	1.01553927e+00	1.29047030e+00	2.53661053e-01	-2.53661053e-01	1.81080340e+00	-5.61116866e-01
0.09            	2.31435281e+00	2.32798838e-18	1.24651404e+00	-1.37116544e-01	1.18905954e+00	2.54578809e-01	1.02005986e+00	1.29429295e+00	2.54578809e-01	-2.54578809e-01	1.81231656e+00	-5.65802523e-01
0.091           	2.32472168e+00	2.42972142e-18	1.24364801e+00	-1.36801281e-01	1.18991308e+00	2.55719384e-01	1.02555956e+00	1.29916212e+00	2.55719384e-01	-2.55719384e-01	1.81173709e+00	-5.68089079e-01
0.092           	2.33190485e+00	2.53306019e-18	1.23832726e+00	-1.36215999e-01	1.18851962e+00	2.56509533e-01	1.02973642e+00	1.30216842e+00	2.56509533e-01	-2.56509533e-01	1.80768325e+00	-5.69355991e-01
0.093           	2.33935521e+00	2.63999012e-18	1.23331581e+00	-1.35664739e-01	1.18488158e+00	2.57329073e-01	1.03401286e+00	1.30534234e+00	2.57329073e-01	-2.57329073e-01	1.80153949e+00	-5.68223680e-01
0.094           	2.34558393e+00	2.74601331e-18	1.23132916e+00	-1.35446208e-01	1.17900506e+00	2.58014233e-01	1.03734576e+00	1.30823817e+00	2.58014233e-01	-2.58014233e-01	1.79466964e+00	-5.63340478e-01
0.095           	2.35402701e+00	2.85677472e-18	1.22758816e+00	-1.35034698e-01	1.17089949e+00	2.58942971e-01	1.04197881e+00	1.31204820e+00	2.58942971e-01	-2.58942971e-01	1.78469357e+00	-5.57105408e-01
0.096           	2.36259639e+00	2.97304546e-18	1.22342685e+00	-1.34576953e-01	1.16057784e+00	2.59885603e-01	1.04672124e+00	1.31587515e+00	2.59885603e-01	-2.59885603e-01	1.77229126e+00	-5.48864413e-01
0.097           	2.37161185e+00	3.08364021e-18	1.22267626e+00	-1.34494389e-01	1.14805734e+00	2.60877304e-01	1.05131154e+00	1.32030032e+00	2.60877304e-01	-2.60877304e-01	1.75939547e+00	-5.36719208e-01
0.098           	2.37813030e+00	3.19739106e-18	1.22072273e+00	-1.34279500e-01	1.13335894e+00	2.61594332e-01	1.05478565e+00	1.32334465e+00	2.61594332e-01	-2.61594332e-01	1.74372030e+00	-5.22997573e-01
0.099           	2.38499101e+00	3.31090011e-18	1.21890816e+00	-1.34079898e-01	1.11650668e+00	2.62349012e-01	1.05841561e+00	1.32657541e+00	2.62349012e-01	-2.62349012e-01	1.72596076e+00	-5.07052602e-01
0.1             	2.39073418e+00	3.42370352e-18	1.21570010e+00	-1.33727010e-01	1.09752815e+00	2.62980760e-01	1.06164008e+00	1.32909410e+00	2.62980760e-01	-2.62980760e-01	1.70537820e+00	-4.89678107e-01
0.101           	2.39996441e+00	3.52896343e-18	1.21873898e+00	-1.34061288e-01	1.07645456e+00	2.63996086e-01	1.06592092e+00	1.33404349e+00	2.63996086e-01	-2.63996086e-01	1.68582405e+00	-4.67085066e-01
0.102           	2.40676667e+00	3.64136260e-18	1.21729514e+00	-1.33902466e-01	1.05332101e+00	2.64744333e-01	1.06948087e+00	1.33728580e+00	2.64744333e-01	-2.64744333e-01	1.66196858e+00	-4.44673435e-01
0.103           	2.41609655e+00	3.75361001e-18	1.21601360e+00	-1.33761496e-01	1.02816658e+00	2.65770620e-01	1.07428678e+00	1.34180977e+00	2.65770620e-01	-2.65770620e-01	1.63617338e+00	-4.20159782e-01
0.104           	2.42299622e+00	3.86787132e-18	1.21406973e+00	-1.33547670e-01	1.00103389e+00	2.66529584e-01	1.07795044e+00	1.34504578e+00	2.66529584e-01	-2.66529584e-01	1.60806875e+00	-3.93999024e-01
0.105           	2.42916789e+00	3.96643232e-18	1.21150918e+00	-1.33266009e-01	9.71969498e-01	2.67208468e-01	1.08131794e+00	1.34784995e+00	2.67208468e-01	-2.67208468e-01	1.57772409e+00	-3.66214911e-01
0.106           	2.43889740e+00	4.06769292e-18	1.21381935e+00	-1.33520129e-01	9.41023144e-01	2.68278714e-01	1.08592857e+00	1.35296883e+00	2.68278714e-01	-2.68278714e-01	1.54793282e+00	-3.34113467e-01
0.107           	2.44939049e+00	4.16653712e-18	1.21297849e+00	-1.33427633e-01	9.08249759e-01	2.69432954e-01	1.09126761e+00	1.35812288e+00	2.69432954e-01	-2.69432954e-01	1.51473900e+00	-3.01760517e-01
0.108           	2.45742383e+00	4.25945943e-18	1.21468243e+00	-1.33615067e-01	8.73707376e-01	2.70316621e-01	1.09509685e+00	1.36232698e+00	2.70316621e-01	-2.70316621e-01	1.48104859e+00	-2.66366161e-01
0.109           	2.46431131e+00	4.34947978e-18	1.21522650e+00	-1.33674916e-01	8.37457737e-01	2.71074244e-01	1.09848074e+00	1.36583057e+00	2.71074244e-01	-2.71074244e-01	1.44507099e+00	-2.29844484e-01
0.11            	2.46977887e+00	4.44394018e-18	1.21457286e+00	-1.33603014e-01	7.99566797e-01	2.71675675e-01	1.10128642e+00	1.36849245e+00	2.71675675e-01	-2.71675675e-01	1.40685323e+00	-1.92280368e-01
0.111           	2.47728599e+00	4.52522091e-18	1.21850594e+00	-1.34035654e-01	7.60103887e-01	2.72501459e-01	1.10460734e+00	1.37267865e+00	2.72501459e-01	-2.72501459e-01	1.36935686e+00	-1.50850915e-01
0.112           	2.48651902e+00	4.60383008e-18	1.21946000e+00	-1.34140600e-01	7.19141894e-01	2.73517092e-01	1.10911891e+00	1.37740011e+00	2.73517092e-01	-2.73517092e-01	1.32887190e+00	-1.09411894e-01
0.113           	2.49190949e+00	4.68063531e-18	1.21891199e+00	-1.34080319e-01	6.76757928e-01	2.74110044e-01	1.11187442e+00	1.38003506e+00	2.74110044e-01	-2.74110044e-01	1.28621392e+00	-6.73019327e-02
0.114           	2.49663329e+00	4.75171596e-18	1.22011228e+00	-1.34212351e-01	6.33032718e-01	2.74629662e-01	1.11410430e+00	1.38252900e+00	2.74629662e-01	-2.74629662e-01	1.24308886e+00	-2.29765782e-02
0.115           	2.50884206e+00	4.81295641e-18	1.22648077e+00	-1.34912885e-01	5.88050396e-01	2.75972627e-01	1.11950815e+00	1.38933392e+00	2.75972627e-01	-2.75972627e-01	1.20129078e+00	2.51899899e-02
0.116           	2.51615327e+00	4.86946457e-18	1.22924518e+00	-1.35216970e-01	5.41898670e-01	2.76776860e-01	1.12285967e+00	1.39329360e+00	2.76776860e-01	-2.76776860e-01	1.15652126e+00	7.27239202e-02
0.117           	2.51684538e+00	4.92282723e-18	1.23297370e+00	-1.35627107e-01	4.94668515e-01	2.76852992e-01	1.12279558e+00	1.39404980e+00	2.76852992e-01	-2.76852992e-01	1.11115537e+00	1.21818337e-01
0.118           	2.52564053e+00	4.96747660e-18	1.23886768e+00	-1.36275445e-01	4.46453507e-01	2.77820458e-01	1.12654482e+00	1.39909571e+00	2.77820458e-01	-2.77820458e-01	1.06588735e+00	1.72980332e-01
0.119           	2.52703160e+00	5.00944842e-18	1.24007248e+00	-1.36407973e-01	3.97350443e-01	2.77973476e-01	1.12710782e+00	1.39992377e+00	2.77973476e-01	-2.77973476e-01	1.01738668e+00	2.22685797e-01
0.12            	2.53253866e+00	5.04083773e-18	1.24430863e+00	-1.36873949e-01	3.47458573e-01	2.78579253e-01	1.12939538e+00	1.40314328e+00	2.78579253e-01	-2.78579253e-01	9.69612886e-01	2.74695740e-01
0.121           	2.54487887e+00	5.06563590e-18	1.25143704e+00	-1.37658075e-01	2.96879332e-01	2.79936676e-01	1.13478136e+00	1.41009751e+00	2.79936676e-01	-2.79936676e-01	9.22597853e-01	3.28839190e-01
0.122           	2.54816987e+00	5.08756117e-18	1.25560116e+00	-1.38116127e-01	2.45717116e-01	2.80298686e-01	1.13596881e+00	1.41220106e+00	2.80298686e-01	-2.80298686e-01	8.73517694e-01	3.82083463e-01
0.123           	2.54917619e+00	5.10743965e-18	1.25504776e+00	-1.38055253e-01	1.94077633e-01	2.80409381e-01	1.13653284e+00	1.41264335e+00	2.80409381e-01	-2.80409381e-01	8.21601513e-01	4.33446246e-01
0.124           	2.55190409e+00	5.11817421e-18	1.25549928e+00	-1.38104921e-01	1.42068568e-01	2.80709450e-01	1.13784712e+00	1.41405697e+00	2.80709450e-01	-2.80709450e-01	7.69818207e-01	4.85681071e-01
0.125           	2.55608335e+00	5.12406184e-18	1.26468103e+00	-1.39114913e-01	8.97975174e-02	2.81169169e-01	1.13892676e+00	1.41715659e+00	2.81169169e-01	-2.81169169e-01	7.22138032e-01	5.42542998e-01
0.126           	2.56747872e+00	5.12101937e-18	1.27251693e+00	-1.39976862e-01	3.73746850e-02	2.82422659e-01	1.14376250e+00	1.42371622e+00	2.82422659e-01	-2.82422659e-01	6.73633149e-01	5.98883779e-01
0.127           	2.57010106e+00	5.11719676e-18	1.27708931e+00	-1.40479825e-01	-1.50888358e-02	2.82711117e-01	1.14457071e+00	1.42553036e+00	2.82711117e-01	-2.82711117e-01	6.23455822e-01	6.53633493e-01
0.128           	2.57617057e+00	5.10403893e-18	1.28455262e+00	-1.41300788e-01	-6.74819818e-02	2.83378762e-01	1.14678449e+00	1.42938607e+00	2.83378762e-01	-2.83378762e-01	5.74794327e-01	7.09758291e-01
0.129           	2.57441307e+00	5.09735514e-18	1.28836470e+00	-1.41720117e-01	-1.19693970e-01	2.83185438e-01	1.14548642e+00	1.42892665e+00	2.83185438e-01	-2.83185438e-01	5.24488381e-01	7.63876322e-01
0.13            	2.57796189e+00	5.07957148e-18	1.29206313e+00	-1.42126944e-01	-1.71614101e-01	2.83575808e-01	1.14685400e+00	1.43110789e+00	2.83575808e-01	-2.83575808e-01	4.74417463e-01	8.17645666e-01
0.131           	2.58177730e+00	5.05062625e-18	1.29848808e+00	-1.42833689e-01	-2.23132054e-01	2.83995503e-01	1.14805496e+00	1.43372234e+00	2.83995503e-01	-2.83995503e-01	4.26111986e-01	8.72376094e-01
0.132           	2.58575850e+00	5.02274146e-18	1.30549830e+00	-1.43604813e-01	-2.74138904e-01	2.84433435e-01	1.14927444e+00	1.43648406e+00	2.84433435e-01	-2.84433435e-01	3.78610244e-01	9.26888053e-01
0.133           	2.59006871e+00	4.98217444e-18	1.31309752e+00	-1.44440728e-01	-3.24526165e-01	2.84907558e-01	1.15059363e+00	1.43947508e+00	2.84907558e-01	-2.84907558e-01	3.32022597e-01	9.81074927e-01
0.134           	2.59525580e+00	4.94529899e-18	1.32120189e+00	-1.45332208e-01	-3.74187621e-01	2.85478138e-01	1.15229569e+00	1.44296011e+00	2.85478138e-01	-2.85478138e-01	2.86413323e-01	1.03478856e+00
0.135           	2.59363504e+00	4.91258021e-18	1.32497243e+00	-1.45746967e-01	-4.23018867e-01	2.85299854e-01	1.15107055e+00	1.44256449e+00	2.85299854e-01	-2.85299854e-01	2.39467346e-01	1.08550508e+00
0.136           	2.59632586e+00	4.87337366e-18	1.32854551e+00	-1.46140006e-01	-4.70917568e-01	2.85595845e-01	1.15202292e+00	1.44430294e+00	2.85595845e-01	-2.85595845e-01	1.93355188e-01	1.13519032e+00
0.137           	2.59777844e+00	4.83681931e-18	1.33186046e+00	-1.46504650e-01	-5.17782797e-01	2.85755628e-01	1.15238457e+00	1.44539387e+00	2.85755628e-01	-2.85755628e-01	1.48147432e-01	1.18371303e+00
0.138           	2.60130068e+00	4.78118549e-18	1.33910194e+00	-1.47301213e-01	-5.63519745e-01	2.86143075e-01	1.15334913e+00	1.44795156e+00	2.86143075e-01	-2.86143075e-01	1.06031223e-01	1.23307071e+00
0.139           	2.60524452e+00	4.71933685e-18	1.34541786e+00	-1.47995964e-01	-6.08032680e-01	2.86576897e-01	1.15462630e+00	1.45061823e+00	2.86576897e-01	-2.86576897e-01	6.46762484e-02	1.28074161e+00
0.14            	2.60378085e+00	4.67427965e-18	1.34699095e+00	-1.48169005e-01	-6.51231029e-01	2.86415894e-01	1.15372142e+00	1.45005943e+00	2.86415894e-01	-2.86415894e-01	2.22644468e-02	1.32472650e+00
0.141           	2.60695009e+00	4.61791724e-18	1.35375769e+00	-1.48913346e-01	-6.93027275e-01	2.86764510e-01	1.15456170e+00	1.45238839e+00	2.86764510e-01	-2.86764510e-01	-1.61484283e-02	1.36990612e+00
0.142           	2.60622163e+00	4.56578224e-18	1.35755582e+00	-1.49331141e-01	-7.33336992e-01	2.86684380e-01	1.15377968e+00	1.45244196e+00	2.86684380e-01	-2.86684380e-01	-5.45590799e-02	1.41211490e+00
0.143           	2.60872608e+00	4.51444163e-18	1.36094936e+00	-1.49704429e-01	-7.72081695e-01	2.86959869e-01	1.15465861e+00	1.45406747e+00	2.86959869e-01	-2.86959869e-01	-9.16070171e-02	1.45255637e+00
0.144           	2.61098335e+00	4.45537518e-18	1.36511693e+00	-1.50162863e-01	-8.09185494e-01	2.87208168e-01	1.15532881e+00	1.45565454e+00	2.87208168e-01	-2.87208168e-01	-1.26627027e-01	1.49174396e+00