# Force coefficients
# dragDir       : (1.00000000e+00 0.00000000e+00 0.00000000e+00)
# sideDir       : (0.00000000e+00 0.00000000e+00 -1.00000000e+00)
# liftDir       : (0.00000000e+00 1.00000000e+00 0.00000000e+00)
# rollAxis      : (1.00000000e+00 0.00000000e+00 0.00000000e+00)
# pitchAxis     : (0.00000000e+00 0.00000000e+00 -1.00000000e+00)
# yawAxis       : (0.00000000e+00 1.00000000e+00 0.00000000e+00)
# magUInf       : 1.00000000e+00
# lRef          : 1.00000000e-01
# Aref          : 1.00000000e-03
# CofR          : (2.00000000e-01 2.00000000e-01 5.00000000e-03)
#
# Time          	Cd              	Cs              	Cl              	CmRoll          	CmPitch         	CmYaw           	Cd(f)           	Cd(r)           	Cs(f)           	Cs(r)           	Cl(f)           	Cl(r)           
0.0005          	6.84025067e+02	-1.73890268e-14	-1.07795501e+00	1.18575052e-01	5.69350600e-04	7.52427574e+01	3.42131109e+02	3.41893959e+02	7.52427574e+01	-7.52427574e+01	-5.38408157e-01	-5.39546858e-01
0.001           	5.74405522e+00	-2.08775046e-18	6.19560841e-04	-6.81516925e-05	4.61773879e-04	6.31846074e-01	2.87195946e+00	2.87209576e+00	6.31846074e-01	-6.31846074e-01	7.71554299e-04	-1.51993458e-04
0.0015          	5.36849777e+00	-1.54318797e-18	-2.92041003e-02	3.21245103e-03	3.72909832e-04	5.90534755e-01	2.68746134e+00	2.68103644e+00	5.90534755e-01	-5.90534755e-01	-1.42291403e-02	-1.49749600e-02
0.002           	4.93433001e+00	-1.40306582e-18	-1.65568132e-02	1.82124946e-03	2.99238786e-04	5.42776301e-01	2.46898626e+00	2.46534376e+00	5.42776301e-01	-5.42776301e-01	-7.97916783e-03	-8.57764540e-03
0.0025          	4.63269713e+00	-1.30343446e-18	-8.01515443e-03	8.81666988e-04	2.38297015e-04	5.09596684e-01	2.31723023e+00	2.31546690e+00	5.09596684e-01	-5.09596684e-01	-3.76928020e-03	-4.24587423e-03
0.003           	4.36787611e+00	-1.21625479e-18	-7.42490351e-03	8.16739386e-04	1.88059683e-04	4.80466372e-01	2.18475480e+00	2.18312132e+00	4.80466372e-01	-4.80466372e-01	-3.52439207e-03	-3.90051144e-03
0.0035          	4.13623114e+00	-1.13775065e-18	-7.03180228e-03	7.73498251e-04	1.46815115e-04	4.54985426e-01	2.06888907e+00	2.06734207e+00	4.54985426e-01	-4.54985426e-01	-3.36908602e-03	-3.66271625e-03
0.004           	3.92911078e+00	-1.06492060e-18	-6.36129563e-03	6.99742519e-04	1.13128938e-04	4.32202186e-01	1.96525513e+00	1.96385565e+00	4.32202186e-01	-4.32202186e-01	-3.06751888e-03	-3.29377675e-03
0.0045          	3.74384912e+00	-9.97058210e-19	-5.83168854e-03	6.41485739e-04	8.57375322e-05	4.11823403e-01	1.87256604e+00	1.87128307e+00	4.11823403e-01	-4.11823403e-01	-2.83010674e-03	-3.00158180e-03
0.005           	3.57804015e+00	-9.31464155e-19	-6.13401207e-03	6.74741328e-04	6.35713025e-05	3.93584417e-01	1.78969482e+00	1.78834534e+00	3.93584417e-01	-3.93584417e-01	-3.00343473e-03	-3.13057734e-03
0.0055          	3.42838693e+00	-8.68525857e-19	-5.91583578e-03	6.50741935e-04	4.57496289e-05	3.77122562e-01	1.71484421e+00	1.71354272e+00	3.77122562e-01	-3.77122562e-01	-2.91216826e-03	-3.00366752e-03
0.006           	3.29204059e+00	-8.06864750e-19	-5.71571216e-03	6.28728338e-04	3.14974651e-05	3.62124465e-01	1.64664902e+00	1.64539157e+00	3.62124465e-01	-3.62124465e-01	-2.82635862e-03	-2.88935355e-03
0.0065          	3.16795228e+00	-7.47149277e-19	-5.41365159e-03	5.95501675e-04	2.01949411e-05	3.48474751e-01	1.58457164e+00	1.58338064e+00	3.48474751e-01	-3.48474751e-01	-2.68663086e-03	-2.72702074e-03
0.007           	3.05528517e+00	-6.90658077e-19	-5.02969152e-03	5.53266067e-04	1.13130734e-05	3.36081368e-01	1.52819585e+00	1.52708932e+00	3.36081368e-01	-3.36081368e-01	-2.50353269e-03	-2.52615883e-03
0.0075          	2.95271210e+00	-6.36440788e-19	-4.59339984e-03	5.05273982e-04	4.43858287e-06	3.24798331e-01	1.47686133e+00	1.47585078e+00	3.24798331e-01	-3.24798331e-01	-2.29226134e-03	-2.30113850e-03
0.008           	2.85927441e+00	-5.83564539e-19	-4.67515095e-03	5.14266604e-04	-8.45480914e-07	3.14520185e-01	1.43015147e+00	1.42912294e+00	3.14520185e-01	-3.14520185e-01	-2.33842096e-03	-2.33672999e-03
0.0085          	2.77377534e+00	-5.32527264e-19	-5.14169031e-03	5.65585934e-04	-4.82620301e-06	3.05115287e-01	1.38745325e+00	1.38632208e+00	3.05115287e-01	-3.05115287e-01	-2.57567136e-03	-2.56601895e-03
0.009           	2.69554315e+00	-4.84512172e-19	-4.93766755e-03	5.43143431e-04	-7.72189883e-06	2.96509747e-01	1.34831472e+00	1.34722843e+00	2.96509747e-01	-2.96509747e-01	-2.47655567e-03	-2.46111188e-03
0.0095          	2.62228144e+00	-4.35816827e-19	-5.68717131e-03	6.25588844e-04	-9.72358016e-06	2.88450959e-01	1.31176631e+00	1.31051513e+00	2.88450959e-01	-2.88450959e-01	-2.85330923e-03	-2.83386207e-03
0.01            	2.55525355e+00	-3.90933375e-19	-5.74292353e-03	6.31721589e-04	-1.09248593e-05	2.81077891e-01	1.27825850e+00	1.27699506e+00	2.81077891e-01	-2.81077891e-01	-2.88238663e-03	-2.86053691e-03
0.0105          	2.49342542e+00	-3.48560492e-19	-5.58894431e-03	6.14783875e-04	-1.14916750e-05	2.74276796e-01	1.24732749e+00	1.24609792e+00	2.74276796e-01	-2.74276796e-01	-2.80596383e-03	-2.78298048e-03
0.011           	2.43728975e+00	-3.07606324e-19	-6.24261193e-03	6.86687312e-04	-1.15777457e-05	2.68101872e-01	1.21933156e+00	1.21795819e+00	2.68101872e-01	-2.68101872e-01	-3.13288371e-03	-3.10972822e-03
0.0115          	2.38469559e+00	-2.68659905e-19	-6.55198561e-03	7.20718417e-04	-1.13201521e-05	2.62316515e-01	1.19306851e+00	1.19162708e+00	2.62316515e-01	-2.62316515e-01	-3.28731295e-03	-3.26467265e-03
0.012           	2.33570658e+00	-2.31442957e-19	-6.48908146e-03	7.13798961e-04	-1.08305383e-05	2.56927724e-01	1.16856709e+00	1.16713949e+00	2.56927724e-01	-2.56927724e-01	-3.25537127e-03	-3.23371019e-03
0.0125          	2.28992246e+00	-1.95024547e-19	-6.75188227e-03	7.42707050e-04	-1.02410780e-05	2.51891471e-01	1.14570394e+00	1.14421853e+00	2.51891471e-01	-2.51891471e-01	-3.38618221e-03	-3.36570006e-03
0.013           	2.24750277e+00	-1.61225317e-19	-5.95163025e-03	6.54679328e-04	-9.58297556e-06	2.47225305e-01	1.12440606e+00	1.12309670e+00	2.47225305e-01	-2.47225305e-01	-2.98539810e-03	-2.96623215e-03
0.0135          	2.20791783e+00	-1.28379332e-19	-5.61245616e-03	6.17370178e-04	-8.93283049e-06	2.42870961e-01	1.10457629e+00	1.10334155e+00	2.42870961e-01	-2.42870961e-01	-2.81516091e-03	-2.79729525e-03
0.014           	2.17088262e+00	-9.69138030e-20	-5.57129001e-03	6.12841901e-04	-8.29898309e-06	2.38797088e-01	1.08605415e+00	1.08482847e+00	2.38797088e-01	-2.38797088e-01	-2.79394399e-03	-2.77734602e-03
0.0145          	2.13631041e+00	-6.66436895e-20	-5.67833148e-03	6.24616463e-04	-7.70141785e-06	2.34994145e-01	1.06877982e+00	1.06753059e+00	2.34994145e-01	-2.34994145e-01	-2.84686716e-03	-2.83146432e-03
0.015           	2.10378821e+00	-3.66480135e-20	-5.63793954e-03	6.20173350e-04	-7.16562005e-06	2.31416704e-01	1.05251428e+00	1.05127393e+00	2.31416704e-01	-2.31416704e-01	-2.82613539e-03	-2.81180415e-03
0.0155          	2.07343273e+00	-6.96086766e-21	-5.73173623e-03	6.30490986e-04	-6.71867108e-06	2.28077600e-01	1.03734685e+00	1.03608587e+00	2.28077600e-01	-2.28077600e-01	-2.87258679e-03	-2.85914945e-03
0.016           	2.04516397e+00	2.16252425e-20	-5.03492325e-03	5.53841558e-04	-6.35432755e-06	2.24968037e-01	1.02313583e+00	1.02202814e+00	2.24968037e-01	-2.24968037e-01	-2.52381595e-03	-2.51110730e-03
0.0165          	2.01847688e+00	4.86040940e-20	-4.54603782e-03	5.00064160e-04	-6.06266600e-06	2.22032457e-01	1.00973850e+00	1.00873838e+00	2.22032457e-01	-2.22032457e-01	-2.27908157e-03	-2.26695624e-03
0.017           	1.99337072e+00	7.46676792e-20	-4.09577701e-03	4.50535471e-04	-5.85175609e-06	2.19270779e-01	9.97135895e-01	9.96234824e-01	2.19270779e-01	-2.19270779e-01	-2.05374026e-03	-2.04203675e-03
0.0175          	1.96950903e+00	1.00318508e-19	-4.20999808e-03	4.63099789e-04	-5.72849364e-06	2.16645993e-01	9.85217614e-01	9.84291414e-01	2.16645993e-01	-2.16645993e-01	-2.11072754e-03	-2.09927055e-03
0.018           	1.94752142e+00	1.25527101e-19	-3.75553265e-03	4.13108591e-04	-5.69403242e-06	2.14227356e-01	9.74173818e-01	9.73347601e-01	2.14227356e-01	-2.14227356e-01	-1.88346036e-03	-1.87207229e-03
0.0185          	1.92646225e+00	1.49773176e-19	-3.44364193e-03	3.78800612e-04	-5.74815954e-06	2.11910847e-01	9.63609924e-01	9.62852322e-01	2.11910847e-01	-2.11910847e-01	-1.72756912e-03	-1.71607280e-03
0.019           	1.90665335e+00	1.73272557e-19	-3.52950446e-03	3.88245490e-04	-5.90097740e-06	2.09731869e-01	9.53714922e-01	9.52938431e-01	2.09731869e-01	-2.09731869e-01	-1.77065321e-03	-1.75885125e-03
0.0195          	1.88821521e+00	1.96381991e-19	-4.14254896e-03	4.55680386e-04	-6.14937070e-06	2.07703673e-01	9.44563286e-01	9.43651925e-01	2.07703673e-01	-2.07703673e-01	-2.07742385e-03	-2.06512511e-03
0.02            	1.87033000e+00	2.18370635e-19	-4.54118846e-03	4.99530730e-04	-6.48272031e-06	2.05736299e-01	9.35664528e-01	9.34665467e-01	2.05736299e-01	-2.05736299e-01	-2.27707695e-03	-2.26411151e-03
0.0205          	1.85344925e+00	2.39717833e-19	-4.50452199e-03	4.95497418e-04	-6.90216825e-06	2.03879417e-01	9.27220122e-01	9.26229127e-01	2.03879417e-01	-2.03879417e-01	-2.25916316e-03	-2.24535882e-03
0.021           	1.83770664e+00	2.59875559e-19	-3.67179529e-03	4.03897481e-04	-7.40914748e-06	2.02147731e-01	9.19257218e-01	9.18449423e-01	2.02147731e-01	-2.02147731e-01	-1.84330679e-03	-1.82848850e-03
0.0215          	1.82269017e+00	2.79676225e-19	-3.22739970e-03	3.55013967e-04	-8.01035836e-06	2.00495919e-01	9.11700101e-01	9.10990073e-01	2.00495919e-01	-2.00495919e-01	-1.62171021e-03	-1.60568949e-03
0.022           	1.80847900e+00	2.98892648e-19	-2.76232526e-03	3.03855778e-04	-8.71055013e-06	1.98932690e-01	9.04543357e-01	9.03935645e-01	1.98932690e-01	-1.98932690e-01	-1.38987318e-03	-1.37245208e-03
0.0225          	1.79521881e+00	3.17329834e-19	-1.90377538e-03	2.09415292e-04	-9.51439993e-06	1.97474069e-01	8.97818819e-01	8.97399988e-01	1.97474069e-01	-1.97474069e-01	-9.61402089e-04	-9.42373289e-04
0.023           	1.78251063e+00	3.35842633e-19	-1.62868831e-03	1.79155714e-04	-1.04265280e-05	1.96076169e-01	8.91434468e-01	8.91076157e-01	1.96076169e-01	-1.96076169e-01	-8.24770685e-04	-8.03917629e-04
0.0235          	1.77047128e+00	3.53790030e-19	-1.45621393e-03	1.60183532e-04	-1.14518661e-05	1.94751841e-01	8.85395824e-01	8.85075457e-01	1.94751841e-01	-1.94751841e-01	-7.39558829e-04	-7.16655097e-04
0.024           	1.75947134e+00	3.71735217e-19	-1.86167221e-03	2.04783943e-04	-1.26011997e-05	1.93541847e-01	8.79940454e-01	8.79530886e-01	1.93541847e-01	-1.93541847e-01	-9.43437303e-04	-9.18234904e-04
0.0245          	1.74894011e+00	3.88990072e-19	-1.54314306e-03	1.69745736e-04	-1.38624250e-05	1.92383412e-01	8.74639801e-01	8.74300309e-01	1.92383412e-01	-1.92383412e-01	-7.85433953e-04	-7.57709103e-04
0.025           	1.73892866e+00	4.05987066e-19	-1.75931384e-03	1.93524522e-04	-1.52391993e-05	1.91282153e-01	8.69657855e-01	8.69270806e-01	1.91282153e-01	-1.91282153e-01	-8.94896119e-04	-8.64417721e-04
0.0255          	1.72929346e+00	4.22735617e-19	-1.72881432e-03	1.90169575e-04	-1.67194603e-05	1.90222281e-01	8.64836901e-01	8.64456562e-01	1.90222281e-01	-1.90222281e-01	-8.81126619e-04	-8.47687698e-04
0.026           	1.72026222e+00	4.38233213e-19	-1.34137884e-03	1.47551673e-04	-1.83000506e-05	1.89228844e-01	8.60278662e-01	8.59983559e-01	1.89228844e-01	-1.89228844e-01	-6.88989471e-04	-6.52389370e-04
0.0265          	1.71156937e+00	4.54474538e-19	-1.14975866e-03	1.26473452e-04	-2.00156313e-05	1.88272631e-01	8.55911161e-01	8.55658214e-01	1.88272631e-01	-1.88272631e-01	-5.94894959e-04	-5.54863697e-04
0.027           	1.70378843e+00	4.67416922e-19	-9.66200105e-04	1.06282012e-04	-2.18388180e-05	1.87416727e-01	8.52000495e-01	8.51787931e-01	1.87416727e-01	-1.87416727e-01	-5.04938870e-04	-4.61261234e-04
0.0275          	1.69620789e+00	4.81874668e-19	-8.71743716e-04	9.58918087e-05	-2.37853529e-05	1.86582868e-01	8.48199838e-01	8.48008055e-01	1.86582868e-01	-1.86582868e-01	-4.59657211e-04	-4.12086505e-04
0.028           	1.68926411e+00	4.96109029e-19	-8.56447705e-04	9.42092476e-05	-2.58463736e-05	1.85819052e-01	8.44726265e-01	8.44537847e-01	1.85819052e-01	-1.85819052e-01	-4.54070226e-04	-4.02377479e-04
0.0285          	1.68270972e+00	5.10192755e-19	-6.14549612e-04	6.76004573e-05	-2.80059191e-05	1.85098069e-01	8.41422458e-01	8.41287257e-01	1.85098069e-01	-1.85098069e-01	-3.35280725e-04	-2.79268887e-04
0.029           	1.67655556e+00	5.23992301e-19	-5.20147021e-04	5.72161723e-05	-3.02605270e-05	1.84421112e-01	8.38334997e-01	8.38220564e-01	1.84421112e-01	-1.84421112e-01	-2.90334037e-04	-2.29812983e-04
0.0295          	1.67080231e+00	5.37402094e-19	-5.43385707e-04	5.97724278e-05	-3.26030820e-05	1.83788255e-01	8.35460930e-01	8.35341385e-01	1.83788255e-01	-1.83788255e-01	-3.04295936e-04	-2.39089772e-04
0.03            	1.66534948e+00	5.50991711e-19	-6.56061199e-04	7.21667318e-05	-3.50258027e-05	1.83188443e-01	8.32746909e-01	8.32602576e-01	1.83188443e-01	-1.83188443e-01	-3.63056402e-04	-2.93004797e-04
0.0305          	1.66006138e+00	5.65169457e-19	-5.03872528e-04	5.54259781e-05	-3.74989970e-05	1.82606752e-01	8.30086116e-01	8.29975264e-01	1.82606752e-01	-1.82606752e-01	-2.89435261e-04	-2.14437267e-04
0.031           	1.65555480e+00	5.75385952e-19	-1.36859784e-03	1.50545762e-04	-4.01420984e-05	1.82111028e-01	8.27927944e-01	8.27626853e-01	1.82111028e-01	-1.82111028e-01	-7.24441018e-04	-6.44156821e-04
0.0315          	1.65164806e+00	5.87458270e-19	-7.13619406e-04	7.84981346e-05	-4.29084362e-05	1.81681287e-01	8.25902529e-01	8.25745532e-01	1.81681287e-01	-1.81681287e-01	-3.99718139e-04	-3.13901267e-04
0.032           	1.64770772e+00	5.99270103e-19	-7.76687450e-04	8.54356195e-05	-4.57154882e-05	1.81247849e-01	8.23939296e-01	8.23768425e-01	1.81247849e-01	-1.81247849e-01	-4.34059213e-04	-3.42628237e-04
0.0325          	1.64381547e+00	6.09818079e-19	-6.19134213e-04	6.81047634e-05	-4.84835542e-05	1.80819701e-01	8.21975838e-01	8.21839629e-01	1.80819701e-01	-1.80819701e-01	-3.58050661e-04	-2.61083552e-04
0.033           	1.64096025e+00	6.23016475e-19	-1.02814511e-03	1.13095962e-04	-5.13666946e-05	1.80505627e-01	8.20593219e-01	8.20367027e-01	1.80505627e-01	-1.80505627e-01	-5.65439251e-04	-4.62705862e-04
0.0335          	1.63806252e+00	6.34805830e-19	-8.54971481e-04	9.40468629e-05	-5.43445924e-05	1.80186877e-01	8.19125306e-01	8.18937212e-01	1.80186877e-01	-1.80186877e-01	-4.81830333e-04	-3.73141148e-04
0.034           	1.63528935e+00	6.45988562e-19	-6.67504004e-04	7.34254405e-05	-5.74143575e-05	1.79881828e-01	8.17718098e-01	8.17571247e-01	1.79881828e-01	-1.79881828e-01	-3.91166360e-04	-2.76337645e-04
0.0345          	1.63252562e+00	6.56877025e-19	-8.18157883e-04	8.99973672e-05	-6.05891236e-05	1.79577818e-01	8.16352807e-01	8.16172812e-01	1.79577818e-01	-1.79577818e-01	-4.69668065e-04	-3.48489818e-04
0.035           	1.63041138e+00	6.67576409e-19	-9.52660623e-04	1.04792669e-04	-6.38772738e-05	1.79345252e-01	8.15310483e-01	8.15100897e-01	1.79345252e-01	-1.79345252e-01	-5.40207585e-04	-4.12453038e-04
0.0355          	1.62817574e+00	6.77547833e-19	-1.36987495e-03	1.50686244e-04	-6.73223077e-05	1.79099331e-01	8.14238555e-01	8.13937182e-01	1.79099331e-01	-1.79099331e-01	-7.52259782e-04	-6.17615167e-04
0.036           	1.62670927e+00	6.88553024e-19	-1.11162130e-03	1.22278343e-04	-7.08835167e-05	1.78938020e-01	8.13476914e-01	8.13232357e-01	1.78938020e-01	-1.78938020e-01	-6.26694165e-04	-4.84927131e-04
0.0365          	1.62525341e+00	6.98840246e-19	-1.25642293e-03	1.38206522e-04	-7.45203615e-05	1.78777875e-01	8.12764912e-01	8.12488499e-01	1.78777875e-01	-1.78777875e-01	-7.02731826e-04	-5.53691102e-04
0.037           	1.62416074e+00	7.09129006e-19	-1.31099818e-03	1.44209800e-04	-7.82408171e-05	1.78657681e-01	8.12224580e-01	8.11936160e-01	1.78657681e-01	-1.78657681e-01	-7.33739907e-04	-5.77258272e-04
0.0375          	1.62296478e+00	7.19385083e-19	-1.92703379e-03	2.11973716e-04	-8.20274158e-05	1.78526126e-01	8.11694363e-01	8.11270416e-01	1.78526126e-01	-1.78526126e-01	-1.04554431e-03	-8.81489477e-04
0.038           	1.62214431e+00	7.29909027e-19	-2.09213332e-03	2.30134665e-04	-8.58777864e-05	1.78435874e-01	8.11302287e-01	8.10842018e-01	1.78435874e-01	-1.78435874e-01	-1.13194445e-03	-9.60188872e-04
0.0385          	1.62131390e+00	7.39918397e-19	-2.69087352e-03	2.95996087e-04	-8.97939746e-05	1.78344529e-01	8.10952948e-01	8.10360956e-01	1.78344529e-01	-1.78344529e-01	-1.43523074e-03	-1.25564279e-03
0.039           	1.62069932e+00	7.50476812e-19	-2.29252539e-03	2.52177792e-04	-9.37894057e-05	1.78276925e-01	8.10601836e-01	8.10097480e-01	1.78276925e-01	-1.78276925e-01	-1.24005210e-03	-1.05247329e-03
0.0395          	1.62086331e+00	7.59592600e-19	-1.96539617e-03	2.16193578e-04	-9.77535390e-05	1.78294965e-01	8.10647851e-01	8.10215464e-01	1.78294965e-01	-1.78294965e-01	-1.08045162e-03	-8.84944544e-04
0.04            	1.62127307e+00	7.66722807e-19	-2.49511456e-03	2.74462602e-04	-1.01786411e-04	1.78340038e-01	8.10910998e-01	8.10362073e-01	1.78340038e-01	-1.78340038e-01	-1.34934369e-03	-1.14577087e-03
0.0405          	1.62145037e+00	7.75732625e-19	-2.78957468e-03	3.06853214e-04	-1.05868624e-04	1.78359541e-01	8.11032039e-01	8.10418332e-01	1.78359541e-01	-1.78359541e-01	-1.50065596e-03	-1.28891871e-03
0.041           	1.62165723e+00	7.84684228e-19	-2.70510825e-03	2.97561907e-04	-1.10003011e-04	1.78382296e-01	8.11126179e-01	8.10531055e-01	1.78382296e-01	-1.78382296e-01	-1.46255713e-03	-1.24255111e-03
0.0415          	1.62249206e+00	7.94011340e-19	-2.89692490e-03	3.18661739e-04	-1.14170365e-04	1.78474127e-01	8.11564694e-01	8.10927371e-01	1.78474127e-01	-1.78474127e-01	-1.56263281e-03	-1.33429208e-03
0.042           	1.62259328e+00	8.02930347e-19	-3.32598895e-03	3.65858784e-04	-1.18384148e-04	1.78485261e-01	8.11662500e-01	8.10930782e-01	1.78485261e-01	-1.78485261e-01	-1.78137862e-03	-1.54461033e-03
0.0425          	1.62349831e+00	8.11746362e-19	-3.37855491e-03	3.71641040e-04	-1.22644283e-04	1.78584814e-01	8.12120797e-01	8.11377515e-01	1.78584814e-01	-1.78584814e-01	-1.81192174e-03	-1.56663317e-03
0.043           	1.62458317e+00	8.20515368e-19	-3.48051997e-03	3.82857197e-04	-1.26934239e-04	1.78704149e-01	8.12674444e-01	8.11908729e-01	1.78704149e-01	-1.78704149e-01	-1.86719423e-03	-1.61332575e-03
0.0435          	1.62567226e+00	8.28787665e-19	-3.57170602e-03	3.92887663e-04	-1.31252275e-04	1.78823948e-01	8.13229017e-01	8.12443241e-01	1.78823948e-01	-1.78823948e-01	-1.91710529e-03	-1.65460074e-03
0.044           	1.62656855e+00	8.37373665e-19	-3.84147224e-03	4.22561946e-04	-1.35590845e-04	1.78922540e-01	8.13706836e-01	8.12861712e-01	1.78922540e-01	-1.78922540e-01	-2.05632696e-03	-1.78514527e-03
0.0445          	1.62804936e+00	8.46891543e-19	-4.28135167e-03	4.70948684e-04	-1.39948170e-04	1.79085430e-01	8.14495630e-01	8.13553733e-01	1.79085430e-01	-1.79085430e-01	-2.28062401e-03	-2.00072767e-03
0.045           	1.62942488e+00	8.55670192e-19	-4.38629446e-03	4.82492390e-04	-1.44306579e-04	1.79236737e-01	8.15194933e-01	8.14229948e-01	1.79236737e-01	-1.79236737e-01	-2.33745381e-03	-2.04884065e-03
0.0455          	1.63073005e+00	8.65516674e-19	-4.08801126e-03	4.49681238e-04	-1.48652331e-04	1.79380305e-01	8.15814706e-01	8.14915343e-01	1.79380305e-01	-1.79380305e-01	-2.19265796e-03	-1.89535330e-03
0.046           	1.63265493e+00	8.71957777e-19	-5.38981416e-03	5.92879558e-04	-1.52956239e-04	1.79592042e-01	8.16920345e-01	8.15734586e-01	1.79592042e-01	-1.79592042e-01	-2.84786332e-03	-2.54195084e-03
0.0465          	1.63511780e+00	8.80068526e-19	-4.75739254e-03	5.23313179e-04	-1.57272014e-04	1.79862958e-01	8.18082215e-01	8.17035589e-01	1.79862958e-01	-1.79862958e-01	-2.53596828e-03	-2.22142425e-03
0.047           	1.63715362e+00	8.88106563e-19	-4.84834140e-03	5.33317554e-04	-1.61574117e-04	1.80086898e-01	8.19110125e-01	8.18043490e-01	1.80086898e-01	-1.80086898e-01	-2.58574482e-03	-2.26259658e-03
0.0475          	1.63918602e+00	8.96446505e-19	-5.29251731e-03	5.82176904e-04	-1.65843119e-04	1.80310462e-01	8.20175188e-01	8.19010834e-01	1.80310462e-01	-1.80310462e-01	-2.81210177e-03	-2.48041554e-03
0.048           	1.64133938e+00	9.05131428e-19	-5.55635493e-03	6.11199042e-04	-1.70077779e-04	1.80547331e-01	8.21280887e-01	8.20058489e-01	1.80547331e-01	-1.80547331e-01	-2.94825524e-03	-2.60809968e-03
0.0485          	1.64371716e+00	9.13492235e-19	-5.41844097e-03	5.96028507e-04	-1.74272131e-04	1.80808888e-01	8.22454611e-01	8.21262554e-01	1.80808888e-01	-1.80808888e-01	-2.88349262e-03	-2.53494835e-03
0.049           	1.64612863e+00	9.21237362e-19	-5.06910534e-03	5.57601588e-04	-1.78406335e-04	1.81074149e-01	8.23621916e-01	8.22506712e-01	1.81074149e-01	-1.81074149e-01	-2.71295901e-03	-2.35614634e-03
0.0495          	1.64849134e+00	9.29105180e-19	-6.25308403e-03	6.87839243e-04	-1.82476912e-04	1.81334048e-01	8.24933510e-01	8.23557832e-01	1.81334048e-01	-1.81334048e-01	-3.30901893e-03	-2.94406510e-03
0.05            	1.64994843e+00	9.37275504e-19	-6.28261077e-03	6.91087184e-04	-1.86438351e-04	1.81494327e-01	8.25665301e-01	8.24283126e-01	1.81494327e-01	-1.81494327e-01	-3.32774373e-03	-2.95486703e-03
0.0505          	1.65202069e+00	9.44011028e-19	-7.28721217e-03	8.01593339e-04	-1.90319116e-04	1.81722276e-01	8.26811940e-01	8.25208753e-01	1.81722276e-01	-1.81722276e-01	-3.83392520e-03	-3.45328697e-03
0.051           	1.65533772e+00	9.50741610e-19	-6.88619344e-03	7.57481279e-04	-1.94195626e-04	1.82087149e-01	8.28426340e-01	8.26911377e-01	1.82087149e-01	-1.82087149e-01	-3.63729235e-03	-3.24890110e-03
0.0515          	1.65857713e+00	9.57838618e-19	-6.66792139e-03	7.33471353e-04	-1.98053880e-04	1.82443484e-01	8.30022035e-01	8.28555092e-01	1.82443484e-01	-1.82443484e-01	-3.53201457e-03	-3.13590681e-03
0.052           	1.66099132e+00	9.66211766e-19	-6.89004815e-03	7.57905297e-04	-2.01884243e-04	1.82709046e-01	8.31253567e-01	8.29737757e-01	1.82709046e-01	-1.82709046e-01	-3.64690832e-03	-3.24313983e-03
0.0525          	1.66355833e+00	9.72931222e-19	-7.72232453e-03	8.49455698e-04	-2.05695950e-04	1.82991416e-01	8.32628619e-01	8.30929707e-01	1.82991416e-01	-1.82991416e-01	-4.06685821e-03	-3.65546631e-03
0.053           	1.66646689e+00	9.80382666e-19	-7.74756192e-03	8.52231811e-04	-2.09463798e-04	1.83311357e-01	8.34085675e-01	8.32381211e-01	1.83311357e-01	-1.83311357e-01	-4.08324476e-03	-3.66431716e-03
0.0535          	1.66910877e+00	9.88290659e-19	-8.33218076e-03	9.16539883e-04	-2.13181332e-04	1.83601965e-01	8.35470924e-01	8.33637845e-01	1.83601965e-01	-1.83601965e-01	-4.37927171e-03	-3.95290905e-03
0.054           	1.67256882e+00	9.95847843e-19	-7.80790782e-03	8.58869860e-04	-2.16862536e-04	1.83982570e-01	8.37143279e-01	8.35425540e-01	1.83982570e-01	-1.83982570e-01	-4.12081645e-03	-3.68709137e-03
0.0545          	1.67551182e+00	1.00317792e-18	-8.35347666e-03	9.18882432e-04	-2.20488399e-04	1.84306300e-01	8.38674792e-01	8.36837027e-01	1.84306300e-01	-1.84306300e-01	-4.39722673e-03	-3.95624993e-03
0.055           	1.67895191e+00	1.01001595e-18	-8.27045770e-03	9.09750347e-04	-2.24060153e-04	1.84684710e-01	8.40385703e-01	8.38566202e-01	1.84684710e-01	-1.84684710e-01	-4.35928901e-03	-3.91116870e-03
0.0555          	1.68236372e+00	1.01724985e-18	-8.34036779e-03	9.17440457e-04	-2.27573848e-04	1.85060010e-01	8.42099303e-01	8.40264422e-01	1.85060010e-01	-1.85060010e-01	-4.39775774e-03	-3.94261005e-03
0.056           	1.68577852e+00	1.02448988e-18	-8.57083688e-03	9.42792057e-04	-2.31026947e-04	1.85435637e-01	8.43832050e-01	8.41946466e-01	1.85435637e-01	-1.85435637e-01	-4.51644539e-03	-4.05439150e-03
0.0565          	1.68936155e+00	1.03184102e-18	-8.79629985e-03	9.67592983e-04	-2.34419100e-04	1.85829770e-01	8.45648366e-01	8.43713180e-01	1.85829770e-01	-1.85829770e-01	-4.63256902e-03	-4.16373082e-03
0.057           	1.69335190e+00	1.03966163e-18	-8.98151855e-03	9.87967041e-04	-2.37743735e-04	1.86268709e-01	8.47663918e-01	8.45687984e-01	1.86268709e-01	-1.86268709e-01	-4.72850301e-03	-4.25301554e-03
0.0575          	1.69723708e+00	1.04670887e-18	-8.92901225e-03	9.82191347e-04	-2.41000184e-04	1.86696079e-01	8.49600732e-01	8.47636350e-01	1.86696079e-01	-1.86696079e-01	-4.70550631e-03	-4.22350594e-03
0.058           	1.69962521e+00	1.05316620e-18	-8.91262066e-03	9.80388273e-04	-2.44191169e-04	1.86958773e-01	8.50792995e-01	8.48832218e-01	1.86958773e-01	-1.86958773e-01	-4.70050150e-03	-4.21211916e-03
0.0585          	1.70315717e+00	1.06050564e-18	-9.33592973e-03	1.02695227e-03	-2.47316628e-04	1.87347288e-01	8.52605536e-01	8.50551632e-01	1.87347288e-01	-1.87347288e-01	-4.91528149e-03	-4.42064824e-03
0.059           	1.70665664e+00	1.06782045e-18	-9.64482973e-03	1.06093127e-03	-2.50371206e-04	1.87732230e-01	8.54389249e-01	8.52267387e-01	1.87732230e-01	-1.87732230e-01	-5.07278607e-03	-4.57204366e-03
0.0595          	1.71063853e+00	1.07524458e-18	-9.88164182e-03	1.08698060e-03	-2.53347885e-04	1.88170238e-01	8.56406244e-01	8.54232283e-01	1.88170238e-01	-1.88170238e-01	-5.19416880e-03	-4.68747303e-03
0.06            	1.71456430e+00	1.08428680e-18	-9.82990423e-03	1.08128947e-03	-2.56258551e-04	1.88602074e-01	8.58363442e-01	8.56200863e-01	1.88602074e-01	-1.88602074e-01	-5.17121067e-03	-4.65869357e-03
0.0605          	1.71847460e+00	1.08873703e-18	-1.15112295e-02	1.26623524e-03	-2.59079423e-04	1.89032206e-01	8.60503536e-01	8.57971065e-01	1.89032206e-01	-1.89032206e-01	-6.01469415e-03	-5.49653531e-03
0.061           	1.72271905e+00	1.09531993e-18	-1.09809033e-02	1.20789936e-03	-2.61849381e-04	1.89499096e-01	8.62567425e-01	8.60151627e-01	1.89499096e-01	-1.89499096e-01	-5.75230102e-03	-5.22860226e-03
0.0615          	1.72631250e+00	1.10280291e-18	-1.05012992e-02	1.15514291e-03	-2.64512587e-04	1.89894375e-01	8.64311392e-01	8.62001106e-01	1.89894375e-01	-1.89894375e-01	-5.51516218e-03	-4.98613701e-03
0.062           	1.73021301e+00	1.10831722e-18	-1.08223152e-02	1.19045467e-03	-2.67143327e-04	1.90323431e-01	8.66296957e-01	8.63916048e-01	1.90323431e-01	-1.90323431e-01	-5.67830092e-03	-5.14401426e-03
0.0625          	1.73422890e+00	1.11492931e-18	-1.09799104e-02	1.20779014e-03	-2.69743667e-04	1.90765179e-01	8.68322240e-01	8.65906659e-01	1.90765179e-01	-1.90765179e-01	-5.75969887e-03	-5.22021153e-03
0.063           	1.73831827e+00	1.12183077e-18	-1.09036178e-02	1.19939795e-03	-2.72311383e-04	1.91215010e-01	8.70358533e-01	8.67959737e-01	1.91215010e-01	-1.91215010e-01	-5.72412026e-03	-5.17949749e-03
0.0635          	1.74230897e+00	1.12907952e-18	-1.09614616e-02	1.20576077e-03	-2.74847485e-04	1.91653987e-01	8.72360248e-01	8.69948727e-01	1.91653987e-01	-1.91653987e-01	-5.75557826e-03	-5.20588329e-03
0.064           	1.74667198e+00	1.13466881e-18	-1.13949231e-02	1.25344154e-03	-2.77356197e-04	1.92133918e-01	8.74589430e-01	8.72082547e-01	1.92133918e-01	-1.92133918e-01	-5.97481774e-03	-5.42010535e-03
0.0645          	1.75084561e+00	1.14132975e-18	-1.13306198e-02	1.24636818e-03	-2.79837196e-04	1.92593017e-01	8.76669172e-01	8.74176436e-01	1.92593017e-01	-1.92593017e-01	-5.94514712e-03	-5.38547272e-03
0.065           	1.75520044e+00	1.14803812e-18	-1.14896031e-02	1.26385634e-03	-2.82299063e-04	1.93072048e-01	8.78864076e-01	8.76336364e-01	1.93072048e-01	-1.93072048e-01	-6.02710063e-03	-5.46250250e-03
0.0655          	1.75942113e+00	1.15510455e-18	-1.13542748e-02	1.24897023e-03	-2.84774736e-04	1.93536325e-01	8.80959537e-01	8.78461596e-01	1.93536325e-01	-1.93536325e-01	-5.96191213e-03	-5.39236266e-03
0.066           	1.76488412e+00	1.16192895e-18	-1.25846073e-02	1.38430680e-03	-2.87227996e-04	1.94137253e-01	8.83826367e-01	8.81057753e-01	1.94137253e-01	-1.94137253e-01	-6.57953165e-03	-6.00507566e-03
0.0665          	1.76892146e+00	1.16827192e-18	-1.19433103e-02	1.31376413e-03	-2.89600922e-04	1.94581361e-01	8.85774495e-01	8.83146967e-01	1.94581361e-01	-1.94581361e-01	-6.26125606e-03	-5.68205422e-03
0.067           	1.77235846e+00	1.17345009e-18	-1.18949029e-02	1.30843932e-03	-2.91914624e-04	1.94959431e-01	8.87487672e-01	8.84870793e-01	1.94959431e-01	-1.94959431e-01	-6.23936608e-03	-5.65553683e-03
0.0675          	1.77670646e+00	1.18007874e-18	-1.19470914e-02	1.31418006e-03	-2.94172801e-04	1.95437711e-01	8.89667410e-01	8.87039050e-01	1.95437711e-01	-1.95437711e-01	-6.26771851e-03	-5.67937290e-03
0.068           	1.78104184e+00	1.18667336e-18	-1.14567263e-02	1.26023989e-03	-2.96383213e-04	1.95914602e-01	8.91781158e-01	8.89260678e-01	1.95914602e-01	-1.95914602e-01	-6.02474636e-03	-5.43197994e-03
0.0685          	1.78559690e+00	1.19382042e-18	-1.16772503e-02	1.28449754e-03	-2.98550100e-04	1.96415659e-01	8.94082946e-01	8.91513950e-01	1.96415659e-01	-1.96415659e-01	-6.13717526e-03	-5.54007506e-03
0.069           	1.79053663e+00	1.20049044e-18	-1.24287322e-02	1.36716054e-03	-3.00664186e-04	1.96959029e-01	8.96635475e-01	8.93901154e-01	1.96959029e-01	-1.96959029e-01	-6.51503030e-03	-5.91370192e-03
0.0695          	1.79489136e+00	1.20540596e-18	-1.20044599e-02	1.32049059e-03	-3.02746427e-04	1.97438050e-01	8.98766173e-01	8.96125192e-01	1.97438050e-01	-1.97438050e-01	-6.30497640e-03	-5.69948355e-03
0.07            	1.79989017e+00	1.21176181e-18	-1.22002356e-02	1.34202592e-03	-3.04797561e-04	1.97987919e-01	9.01287112e-01	8.98603060e-01	1.97987919e-01	-1.97987919e-01	-6.40491537e-03	-5.79532025e-03
0.0705          	1.80336122e+00	1.21735457e-18	-1.22982542e-02	1.35280797e-03	-3.06819741e-04	1.98369734e-01	9.03033417e-01	9.00327801e-01	1.98369734e-01	-1.98369734e-01	-6.45594686e-03	-5.84230738e-03
0.071           	1.80773380e+00	1.22315845e-18	-1.23763951e-02	1.36140346e-03	-3.08820489e-04	1.98850718e-01	9.05228305e-01	9.02505498e-01	1.98850718e-01	-1.98850718e-01	-6.49701804e-03	-5.87937706e-03
0.0715          	1.81221696e+00	1.22979505e-18	-1.26604225e-02	1.39264647e-03	-3.10801307e-04	1.99343866e-01	9.07501127e-01	9.04715834e-01	1.99343866e-01	-1.99343866e-01	-6.64101254e-03	-6.01940993e-03
0.072           	1.81713919e+00	1.23604498e-18	-1.25835709e-02	1.38419280e-03	-3.12765902e-04	1.99885311e-01	9.09953790e-01	9.07185404e-01	1.99885311e-01	-1.99885311e-01	-6.60455135e-03	-5.97901955e-03